50
config_type=amor Lattice="   11.36344   0.00000   0.00000   0.00000  11.36344   0.00000   0.00000   0.00000  11.36344"    Properties=species:S:1:pos:R:3 energy=-11013.0813 pbc="T T T"
Se      7.149556211      1.741915094      6.699902311
Se      5.551421979      1.463983651      0.042677683
Se      0.641660217      0.475703714      9.403267575
Se      1.718518257      1.942764951      0.812808646
Se     10.649123906      2.334548582      6.433554990
Se      4.242947037      5.678249915     11.120772784
Se     10.572550568      6.329385235      9.392460131
Se      2.840768752      5.895562502      5.269859547
Se      5.884222276      7.224068316      3.054163775
Ge      9.387422415     10.899005390      4.707073435
Se      0.229972649     11.157339034      3.612457527
Ge     11.109792899      7.403553798      0.186338260
Ge      5.554579104      8.256692240      9.323221751
Se      9.715707122      2.706906669     11.351251327
Ge      2.960391094      4.353397696      3.352336158
Se      8.810534653      8.975190103      3.205887926
Se      3.722788338      9.579903659     10.487393477
Ge      8.267008025      4.678131369      0.415361571
P       1.997659397     10.349675358      6.695448004
Ge      2.351511240      7.442503441     10.620493645
Ge      0.580703099      3.889129429     10.808516040
Se      5.182762094      4.490420301      8.241436881
Se      7.288071631      5.694653746      5.434738867
Ge      3.801316009      6.437446374      2.039729418
Se      7.590249144      8.397169692     10.812980134
Se      9.684053182      9.799455692      6.970641389
Ge      9.409055293      6.818737539      4.633698309
Ge      8.054685350     11.287608042      8.402512393
Ge      8.154872817      6.115582231      9.680481589
Ge      4.167618572      1.306032385      2.280713933
Se      3.000330410      2.211008122      5.029418640
Se      0.456243034      5.276522627      1.684807085
Ge      7.659442725      4.472957109      7.566227746
Se      5.385984594      3.457930203      3.131564113
Ge      4.131653435      8.681802136      4.423008499
Se      5.556304226     10.891472054      3.904417259
Ge      8.804230276      2.046761923      4.749627922
Ge     11.163784009      2.553291814      2.229790611
Ge      4.796921791      6.747773040      7.153302859
Ge      3.074072838      0.078288203      8.652197140
Ge      2.634490411      4.467286356      7.336171338
P       0.454853831      9.914371725      8.194507479
Ge      9.508389467      6.224590735      2.002309116
Ge      1.066882881      0.901979675      5.593007358
Ge      5.888790326      3.709234523      0.712001290
Ge      4.943644727      0.455881854      6.242376510
Ge      6.574134631      9.327364954      1.799499694
Se      2.528016839      8.432345279      2.394708019
Se      6.237700263      9.845618086      7.430704397
Se      2.385284665      6.935560976      8.135927710
50
config_type=amor Lattice="   11.36344   0.00000   0.00000   0.00000  11.36344   0.00000   0.00000   0.00000  11.36344"    Properties=species:S:1:pos:R:3 energy=-11020.1146 pbc="T T T"
Se      7.149556211      1.741915094      6.699902311
Se      5.551421979      1.463983651      0.042677683
Se      0.641660217      0.475703714      9.403267575
Se      1.718518257      1.942764951      0.812808646
Se     10.649123906      2.334548582      6.433554990
Se      4.242947037      5.678249915     11.120772784
Se     10.572550568      6.329385235      9.392460131
Se      2.840768752      5.895562502      5.269859547
Se      5.884222276      7.224068316      3.054163775
Ge      9.387422415     10.899005390      4.707073435
Se      0.229972649     11.157339034      3.612457527
Ge     11.109792899      7.403553798      0.186338260
Ge      5.554579104      8.256692240      9.323221751
Se      9.715707122      2.706906669     11.351251327
Ge      2.960391094      4.353397696      3.352336158
Se      8.810534653      8.975190103      3.205887926
Se      3.722788338      9.579903659     10.487393477
Ge      8.267008025      4.678131369      0.415361571
P       1.997659397     10.349675358      6.695448004
Ge      2.351511240      7.442503441     10.620493645
Ge      0.580703099      3.889129429     10.808516040
Se      5.182762094      4.490420301      8.241436881
Se      7.288071631      5.694653746      5.434738867
Ge      3.801316009      6.437446374      2.039729418
Se      7.590249144      8.397169692     10.812980134
Se      9.684053182      9.799455692      6.970641389
Ge      9.409055293      6.818737539      4.633698309
Ge      8.054685350     11.287608042      8.402512393
Ge      8.154872817      6.115582231      9.680481589
Ge      4.167618572      1.306032385      2.280713933
Se      3.000330410      2.211008122      5.029418640
Se      0.456243034      5.276522627      1.684807085
Ge      7.659442725      4.472957109      7.566227746
Se      5.385984594      3.457930203      3.131564113
Ge      4.131653435      8.681802136      4.423008499
Se      5.556304226     10.891472054      3.904417259
Ge      8.804230276      2.046761923      4.749627922
Ge     11.163784009      2.553291814      2.229790611
Ge      4.796921791      6.747773040      7.153302859
Ge      3.074072838      0.078288203      8.652197140
Ge      2.634490411      4.467286356      7.336171338
P       0.454853831      9.914371725      8.194507479
Ge      9.508389467      6.224590735      2.002309116
Ge      1.066882881      0.901979675      5.593007358
Ge      5.888790326      3.709234523      0.712001290
Ge      4.943644727      0.455881854      6.242376510
Ge      6.574134631      9.327364954      1.799499694
Se      2.528016839      8.432345279      2.394708019
Se      6.237700263      9.845618086      7.430704397
Se      2.385284665      6.935560976      8.135927710
50
config_type=amor Lattice="   11.36344   0.00000   0.00000   0.00000  11.36344   0.00000   0.00000   0.00000  11.36344"    Properties=species:S:1:pos:R:3 energy=-11035.0370 pbc="T T T"
Se      7.178715511      1.740642420      6.679016274
Se      5.555106851      1.468695034      0.027629199
Se      0.649835178      0.500705340      9.414439983
Se      1.718887613      1.941711030      0.813715167
Se     10.626110791      2.353898307      6.426215904
Se      4.238263900      5.681885189     11.117689547
Se     10.546142855      6.331658524      9.410892895
Se      2.821318043      5.846759535      5.276863588
Se      5.881069302      7.234213610      3.050780981
Ge      9.325521890     10.910277523      4.664521606
Se      0.220059445     11.153855265      3.629256671
Ge     11.071117497      7.434915924      0.198328926
Ge      5.566933044      8.254141030      9.340958350
Se      9.743620095      2.704951896     11.334769082
Ge      2.905195855      4.303876747      3.337278903
Se      8.818595333      8.950353184      3.174886361
Se      3.740878844      9.589384553     10.508216737
Ge      8.263660613      4.666525093      0.384504151
P       2.022969695     10.387004484      6.741290985
Ge      2.340905165      7.443784907     10.644366836
Ge      0.605672363      3.896295705     10.766506791
Se      5.208056246      4.495731704      8.239618029
Se      7.315411756      5.674586369      5.445801739
Ge      3.777515688      6.422195954      2.075979490
Se      7.605656978      8.414491441     10.820311162
Se      9.690666081      9.806062021      6.958159577
Ge      9.436967374      6.801081687      4.686445578
Ge      8.076690989     11.271854852      8.408825696
Ge      8.119248643      6.120333113      9.668156439
Ge      4.192023976      1.281076053      2.282188904
Se      2.992352552      2.202786830      5.033554455
Se      0.430684965      5.291236296      1.646787074
Ge      7.713147933      4.429152912      7.561318733
Se      5.364204560      3.463053308      3.076257095
Ge      4.134478738      8.668499247      4.447566266
Se      5.566510567     10.904396462      3.926828702
Ge      8.808990701      2.108096191      4.706125664
Ge     11.164165062      2.498728757      2.239354327
Ge      4.848997509      6.735679699      7.129948175
Ge      3.119598993      0.107755142      8.696233250
Ge      2.608256272      4.443707411      7.355229912
P       0.461611001      9.932911124      8.210683111
Ge      9.476914374      6.224111503      2.014670087
Ge      1.054003327      0.904170612      5.609280378
Ge      5.847573096      3.730833229      0.652958184
Ge      4.938405512      0.488729800      6.275629803
Ge      6.542682186      9.352110143      1.801596648
Se      2.530534174      8.449656092      2.414867951
Se      6.248416692      9.846425407      7.428478347
Se      2.419253610      6.921140585      8.143514348
50
config_type=amor Lattice="   11.36344   0.00000   0.00000   0.00000  11.36344   0.00000   0.00000   0.00000  11.36344"    Properties=species:S:1:pos:R:3 energy=-11023.7118 pbc="T T T"
Se      7.756562613      1.432339970      6.221274673
Se      5.886926752      1.396981538     10.523855274
Se      0.886532864      1.501427941      9.888729168
Se      2.384721406      2.108892261      0.939504065
Se     10.819821666      3.180741988      5.831534987
Se      3.251260422      6.534876192      0.266831770
Se     10.214014027      6.742481783      9.184752399
Se      2.626729430      4.095991483      5.630405020
Se      5.601457207      6.919772444      3.440033263
Ge      8.018664039     11.272402564      3.796438692
Se     11.279085407     11.112693684      3.458507411
Ge      9.896706457      8.182739703      0.368444109
Ge      5.859981325      8.454266874      9.358682136
Se      9.774993172      2.909758512     10.431142854
Ge      1.129929371      3.160695096      3.159775389
Se      8.705558379      8.751401232      3.025419545
Se      3.939616782      9.676844948      0.073421814
Ge      7.696718248      4.329847664     11.152785001
P       2.185329455     11.333148345      7.501509514
Ge      1.776989876      8.433020268     11.278744222
Ge      0.261176646      4.735898823     10.320580467
Se      6.124722287      3.813889463      7.902453153
Se      8.479990261      5.039706210      5.495275412
Ge      3.068866033      6.271564420      2.934721908
Se      7.399725296      8.978592276     11.251563540
Se     10.191362779     10.322132627      6.176923936
Ge      9.906221577      6.678896940      4.595909986
Ge      9.082540193     11.300321993      8.091123248
Ge      7.822148621      6.442649571      9.647406512
Ge      4.851053273      0.643109872      1.344525153
Se      2.696899751      1.939974593      4.717414385
Se     10.977386619      5.809674745      1.199557995
Ge      8.916167794      3.096577311      7.787995040
Se      4.312250745      3.486781809      1.674800538
Ge      4.350668772      8.451993881      5.188908483
Se      5.802614615     10.595613382      4.852895121
Ge      9.097298861      2.934987692      3.650279228
Ge     10.858505146      1.319160303      1.714241715
Ge      5.771736482      6.036270258      6.808236584
Ge      3.421988142      0.390165898     10.087896777
Ge      3.305606905      4.145202327      8.398430955
P       0.553911586     10.909283255      8.848256678
Ge      8.732089324      5.329783761      2.022558912
Ge      0.596849275      0.911217004      6.002365124
Ge      5.104217254      3.846142018     10.617208842
Ge      5.463222239      1.242603920      7.217318849
Ge      6.177886441      9.147391394      2.358637358
Se      2.579104588      8.673399054      3.507645980
Se      6.719266426     10.246571499      7.828989749
Se      3.875656616      6.544943694      8.353932075
50
config_type=amor Lattice="   11.36344   0.00000   0.00000   0.00000  11.36344   0.00000   0.00000   0.00000  11.36344"    Properties=species:S:1:pos:R:3 energy=-11025.0976 pbc="T T T"
Se      7.898306258      1.710481746      6.076312488
Se      5.581088390      1.394037812     10.905993978
Se      0.972921065      0.691505085     10.680011885
Se      2.977175979      2.966139664      1.068787812
Se     11.132452906      2.786741354      6.422740316
Se      3.230797667      6.563648348      0.170829934
Se     10.450923799      6.938786368      9.180519648
Se      3.120754166      4.649663036      5.990357807
Se      5.106244873      6.439653090      3.451195948
Ge      9.187859586     10.585270583      4.145492274
Se     11.101626706     11.101981427      2.714446340
Ge     11.090266806      8.261969004      0.230889106
Ge      5.257467146      8.794402630      9.668377857
Se      9.163431965      3.609211467     10.358813940
Ge      1.662189145      3.662808756      3.275282662
Se      8.437619600      8.246125038      2.917060241
Se      3.973150942     10.400054526     10.863770645
Ge      7.588051267      5.065289060     11.266442598
P       1.704992633      9.731755498      7.934956592
Ge      2.309305124      8.764527736      0.541339220
Ge      0.003994396      4.818922426     10.069288711
Se      6.011979523      3.782311336      8.229879274
Se      7.869707140      5.352180998      5.256422887
Ge      2.695135626      6.072383179      2.769559243
Se      6.997726944      8.647379509     11.343530075
Se     10.467677789      9.652499685      6.801282652
Ge      9.818928179      6.413761371      4.438224721
Ge      8.740981540      0.102202373      7.953146320
Ge      7.800889889      6.807071616      9.359834082
Ge      4.400260547      0.920088213      1.664544425
Se      3.205537433      2.294907086      4.561217451
Se     11.250114599      5.654639739      1.143283629
Ge      8.818611658      3.965792308      7.611090046
Se      4.894975141      3.730905039      2.171154887
Ge      4.481903717      8.589663521      5.077623661
Se      5.524790389     10.566648728      4.055266207
Ge      9.588644430      2.804715852      4.618264435
Ge     11.145909945      2.069431706      1.800125114
Ge      5.266973658      5.705954421      6.732240208
Ge      2.985976087      0.514806726      8.729656982
Ge      3.600598974      3.824262829      8.482507464
P       0.992265690      9.833282823      9.907948910
Ge      8.881468312      5.894885331      1.957071960
Ge      0.846803407      0.156844434      5.609435401
Ge      5.358322608      4.018390861     11.107133126
Ge      5.312110942      0.315008770      6.161334218
Ge      5.843731388      8.482925186      2.086340711
Se      2.254528064      8.415054440      3.569137804
Se      6.623969633      9.986229824      7.685289580
Se      2.658053752      6.164671163      8.126796818
50
config_type=amor Lattice="   11.36344   0.00000   0.00000   0.00000  11.36344   0.00000   0.00000   0.00000  11.36344"    Properties=species:S:1:pos:R:3 energy=-11025.4739 pbc="T T T"
Se      7.755428881      1.344779542      5.948790284
Se      5.964120895      1.903570482      0.236482882
Se      1.137783047      0.493741936     11.187628646
Se      2.623947480      3.370072038      0.940198814
Se     10.948027358      1.876496312      7.169070927
Se      3.778251768      7.680412441      0.635693847
Se     10.413377365      7.046163353      9.149208656
Se      2.569634650      4.318309209      6.936976203
Se      4.727224397      6.227166431      3.921727306
Ge      8.728051761     10.445231715      3.694207148
Se     11.105367565      0.587818178      3.531279928
Ge     10.624721469      8.312071738      0.384407137
Ge      4.908809877      8.971989473      8.729343004
Se      9.206082959      3.217781421     10.965255476
Ge      1.565867688      3.621184512      4.325241301
Se      8.737503347      7.841673719      2.818561135
Se      4.811999116      0.249566180      9.594190502
Ge      8.033992786      5.674398184     11.062899171
P       1.620091110      9.867450011      8.430928638
Ge      2.878265357      9.849344985      1.647469239
Ge     11.118137610      4.629127730      9.695383842
Se      5.681705897      4.058410428      8.284658498
Se      7.447562020      4.654908929      5.170160776
Ge      2.531397689      6.164681937      2.763227059
Se      7.022660541      8.404035259     10.057663172
Se     10.092014598      9.713494304      6.081142805
Ge      9.438449124      6.206226388      4.675524457
Ge      8.540001839     10.809305241      7.669892580
Ge      8.043035827      7.203128452      8.257717392
Ge      4.369282243      1.959048099      2.237334822
Se      3.161397414      1.845337580      4.790308374
Se      0.336278247      5.953094837      0.656373442
Ge      8.123995694      3.733191290      7.529475110
Se      6.811696532      3.489718071      1.965689360
Ge      3.588439171      8.553491158      4.882168176
Se      5.086079397      9.697375976      3.081578807
Ge     10.297539952      2.672095663      4.628388895
Ge      0.174316115      3.241556992      1.928355945
Ge      5.934102472      6.102362550      6.538919715
Ge      2.506119047      0.865608915      8.871892554
Ge      3.352684169      3.460927195      9.154033489
P       0.939673480      9.827884948     10.293919694
Ge      9.571478543      5.133992730      1.882029588
Ge      0.600131975      0.007955194      5.770715601
Ge      5.521525910      4.820719533     11.223656575
Ge      5.517542251      0.028457380      5.807050033
Ge      6.344412935      7.016498869      1.699875376
Se      1.464270007      8.564200004      3.394173793
Se      6.599767420      9.340961917      6.682689692
Se      2.457902405      5.701671559      9.107517316
50
config_type=amor Lattice="   11.36344   0.00000   0.00000   0.00000  11.36344   0.00000   0.00000   0.00000  11.36344"    Properties=species:S:1:pos:R:3 energy=-11024.0660 pbc="T T T"
Se      6.731796826      1.033643866      4.935082781
Se      6.521382446      1.877060205      0.201902063
Se      1.012329773      0.108997843      0.048933496
Se      2.955817182      3.091925785      1.047512517
Se     11.023091492      0.866831370      8.102790375
Se      3.724891825      7.441788386      0.535210708
Se     10.243961712      6.578933733      8.748277905
Se      3.358557716      4.566695039      7.107734243
Se      4.364524185      6.343676917      3.956065332
Ge      8.859690809     10.345875798      3.714153861
Se      9.989820117      1.278462775      3.616696068
Ge      9.217185463      8.273309958     10.777948793
Ge      4.856367104      9.494085137      8.725873607
Se     10.247340962      3.027414297      0.292026692
Ge      1.260176445      5.003798691      5.164561854
Se      8.040594586      7.868598962      3.100901550
Se      5.447432173      1.016124604      8.286134773
Ge      7.111077460      5.310515334     11.286218153
P       1.858205290     10.001492531      8.335743464
Ge      3.151264902      9.629228435      1.456704092
Ge      0.635698979      4.791991378      9.860352958
Se      7.182126150      4.291100602      8.863524909
Se      7.814578628      4.974181038      5.202377794
Ge      2.251526731      6.393683134      2.384956503
Se      6.822937661      8.011769727     10.478738881
Se     10.156166421      8.980256766      6.384690797
Ge      9.653506975      6.207859129      4.033418067
Ge      8.400597504     10.734380813      6.809983810
Ge      7.737914902      6.649342778      8.085653779
Ge      4.332285603      1.825750375      3.180651993
Se      2.648783446      3.095308822      4.676302520
Se      0.437888493      6.517823461      0.395367041
Ge      8.292407779      2.844200570      6.392229124
Se      6.522092376      3.129767267      2.166255794
Ge      3.910417075      8.986139157      4.666170134
Se      5.380435554     10.136031919      2.771714652
Ge     10.996409120      2.759508218      5.775341431
Ge      0.542354725      2.901244879      2.385702355
Ge      5.797355923      6.365355280      6.303912820
Ge      1.924773133      1.077975707      8.988072553
Ge      3.906020132      3.542881597      9.227916131
P       0.097891008     10.334183029      9.413666621
Ge      9.881421000      5.297340765      1.120679591
Ge      0.817712248     10.771168341      6.272773440
Ge      5.127096584      3.774288845      0.268214675
Ge      4.727306196      0.242072098      6.057133589
Ge      6.069493446      6.836432085      1.818258598
Se      1.608761253      8.682596881      3.713453692
Se      6.213200297      9.164731797      6.387025688
Se      3.097589682      5.970261029      9.222038795
50
config_type=amor Lattice="   11.36344   0.00000   0.00000   0.00000  11.36344   0.00000   0.00000   0.00000  11.36344"    Properties=species:S:1:pos:R:3 energy=-11025.1690 pbc="T T T"
Se      7.054507384      0.315461373      5.197611878
Se      5.723209566      1.338747209      0.993332080
Se      0.603955917     10.765375125     11.353011464
Se      2.494903116      2.575048359      1.224577032
Se     10.943629996      0.556989049      8.168519696
Se      3.467947373      7.159410691      0.446664750
Se     10.454383048      6.323760085      7.973877029
Se      3.574036031      5.139295731      6.806379577
Se      4.304308469      6.378639259      3.507205750
Ge      9.245522622     10.379177849      3.715372090
Se     10.783881484      1.876620982      4.786688229
Ge     10.232246883      8.073188518      9.735648274
Ge      4.852908972      9.979957747      9.780592061
Se     10.820563339      3.610996697      0.726236449
Ge      0.313667755      5.937932305      4.937837904
Se      7.972114499      7.853362148      3.239336777
Se      5.926337062      1.204844147      8.785368564
Ge      7.192251929      5.170675904     11.163743220
P       2.671885097     10.455618553      8.537344891
Ge      3.204910336      9.767410881      0.494582118
Ge      0.632909993      5.329472145      9.706404323
Se      7.588402485      3.665976576      9.098510506
Se      7.668445804      4.447890494      4.607945364
Ge      1.654394925      6.668767431      2.892237144
Se      7.218211439      7.556508984     10.004019553
Se      9.712913167      9.640694740      6.054652952
Ge      9.336842108      5.885773868      3.566504644
Ge      7.643822616     11.206550922      7.652748773
Ge      8.014341103      5.787670017      7.877871934
Ge      4.173690035      0.975420695      2.726956940
Se      2.484596112      2.355474164      5.032158912
Se      0.278450166      7.026919086      0.458340827
Ge      8.392672089      2.282394792      5.972721737
Se      6.277740969      3.284550975      2.718113060
Ge      3.743649164      8.975317309      3.986630410
Se      5.363318501      9.836081253      2.333954638
Ge      0.809061692      3.253632470      6.589776125
Ge      1.094526459      3.356337980      3.157039443
Ge      5.871752241      6.127863166      5.741093627
Ge      1.637006865      1.075470519      9.601426498
Ge      3.829971935      3.619251935      8.935034815
P       1.008890344      9.697031051      9.408863158
Ge      9.467986703      5.457001451      0.883732953
Ge      0.323452748     11.247802828      5.699531446
Ge      4.968269852      3.886773458      0.339845973
Ge      4.745829624      0.297911258      6.627168434
Ge      5.829382572      7.232775052      1.177105009
Se      1.672059914      9.278970632      2.881659995
Se      5.739717976      9.447499141      7.403044276
Se      3.556476065      6.087845511      9.376931138
50
config_type=amor Lattice="   11.36344   0.00000   0.00000   0.00000  11.36344   0.00000   0.00000   0.00000  11.36344"    Properties=species:S:1:pos:R:3 energy=-11023.2723 pbc="T T T"
Se      7.131150993      0.462836445      5.342358469
Se      5.597345490      1.784946226     11.212000429
Se      0.414581611     11.090527713     11.008113136
Se      2.265657204      2.520067891      1.804473337
Se      0.344946840      0.845793123      8.026844189
Se      3.038515801      7.086891656      0.187224678
Se     10.867903090      6.063338068      7.738214276
Se      4.341579643      4.726941344      6.592898151
Se      3.899767470      6.298736640      3.296320440
Ge      9.104103043     10.716103409      4.252474531
Se     10.401697085      2.436673779      4.729851765
Ge      9.995408424      8.551077037      8.313327190
Ge      5.125403788     10.166209408      9.884336999
Se     10.314381787      3.238266467      1.171088224
Ge      0.331691887      6.314397995      4.983808506
Se      7.625710537      7.388299785      4.024056124
Se      5.298943314      1.358953683      8.060815947
Ge      7.338325706      5.091699845     11.250401324
P       2.973626982     11.025675973      8.629470272
Ge      3.149588777      9.758147716      1.107280639
Ge      0.466703613      5.625776362      9.945037529
Se      7.382303956      4.046134182      8.775350475
Se      7.249402045      4.135204945      4.804944269
Ge      1.576551867      7.014035417      2.062255262
Se      7.326823889      7.152768323     10.049503309
Se     10.282885147      8.891976155      5.817604441
Ge      9.390747046      5.360060384      3.939243401
Ge      8.355228106     10.320326940      7.015268868
Ge      7.815117033      6.300251196      7.800209913
Ge      3.917862496      1.081716630      2.865760305
Se      3.012540320      2.001556625      5.373581723
Se     10.407321784      6.965325087      0.126158899
Ge      8.145410130      2.722131724      6.532464572
Se      6.690478310      2.271363725      2.018761120
Ge      4.240145494      8.686568171      4.278437703
Se      5.649253994      9.788739546      2.321495467
Ge      0.839950364      2.804930272      6.624944119
Ge      0.633649507      3.861456387      3.246562053
Ge      5.978746598      6.775825744      5.874620231
Ge      1.819932115      1.592346003      9.981402837
Ge      4.406215045      4.475850021      8.857265142
P       0.854804074     10.013615827      8.995421119
Ge      9.281711643      5.379042067      1.470230261
Ge      2.030736949     11.042144118      6.135828885
Ge      5.176101879      3.925472092      0.744829913
Ge      4.403436003     10.378837057      6.658078065
Ge      5.479037773      7.276191203      1.557733940
Se      1.834118041      9.543347520      3.353495955
Se      5.886867708      8.874755479      7.801042786
Se      2.715075681      6.674312839      8.805542934
50
config_type=amor Lattice="   11.36344   0.00000   0.00000   0.00000  11.36344   0.00000   0.00000   0.00000  11.36344"    Properties=species:S:1:pos:R:3 energy=-11023.9728 pbc="T T T"
Se      7.948621364     11.101445157      5.222112514
Se      5.380035726      1.919415848     10.587355530
Se      0.743025466     10.898581321     11.123934570
Se      2.008669324      2.685012822      1.635325341
Se      0.364047696      1.842359416      7.699840241
Se      2.915774547      7.775112337      0.595145710
Se     10.568277014      5.679433699      7.399514011
Se      4.089794044      5.840157434      7.214967108
Se      3.731835492      5.883512895      3.677549427
Ge      9.793301010     10.545322393      3.427051795
Se     11.317052083      1.900135739      4.354795723
Ge     10.000527967      8.427007856      7.873717630
Ge      4.809522819     10.805985639      9.929875741
Se     10.180160194      3.313843520      0.254107185
Ge      0.025629560      5.291844876      5.112181132
Se      7.480369020      7.552552470      4.154393037
Se      5.341929510      1.319437153      8.130846534
Ge      7.125576085      4.839652517      0.344115841
P       2.864973217     10.263972095      8.431961383
Ge      3.117917193     10.377802532      0.959063563
Ge      0.073637185      5.402072742      9.794304035
Se      7.615196228      4.228490984      9.197829217
Se      7.522552240      3.782823645      4.885330939
Ge      1.649548356      7.097019105      2.627548141
Se      5.860432029      7.148730225     10.306838300
Se     11.025507961      9.096219675      5.478033552
Ge      8.934097091      5.632524886      3.914543984
Ge      8.000034951     10.641857455      7.793252856
Ge      7.683736733      6.779043038      8.803883354
Ge      3.549172112      0.973615758      2.785131594
Se      3.307232706      1.829192253      5.447833265
Se     11.270398778      7.007100758      0.388530021
Ge      9.031425672      1.761114693      6.251991303
Se      5.828250468      2.074021085      2.453037155
Ge      3.956533946      8.517919742      4.340061175
Se      5.632387208      9.257347125      2.695223588
Ge      1.372391374      3.128799687      6.035634563
Ge      0.027493684      3.848289377      2.456827789
Ge      6.850599673      5.642761201      6.357167100
Ge      2.596950379      1.461607079      9.464976425
Ge      4.172208032      5.097844633      9.760348164
P       0.871382505      9.863815144      9.093641486
Ge      9.267399493      5.627936242      1.264604136
Ge      1.231728993      0.026500003      5.960767612
Ge      4.642123542      3.814449010      1.138633309
Ge      5.051725371     10.707350205      5.712356003
Ge      5.532239843      6.633864013      2.154196372
Se      1.809287435      9.814092720      3.209662228
Se      6.136855553      9.257700272      7.325704301
Se      2.403304248      6.874723530      8.818480056
50
config_type=amor Lattice="   11.36344   0.00000   0.00000   0.00000  11.36344   0.00000   0.00000   0.00000  11.36344"    Properties=species:S:1:pos:R:3 energy=-11024.6308 pbc="T T T"
Se      8.254538915     11.185289945      5.480692224
Se      5.164097100      1.417799538      0.035544243
Se      0.687572952     10.975464020     11.178359730
Se      2.014775025      2.478561145      0.639101730
Se      0.951015773      2.847085921      7.730824626
Se      3.196704316      7.013669540      0.897073180
Se      9.976866372      6.060953449      7.293287685
Se      3.535477953      5.683050082      7.314356801
Se      3.145100407      6.799115242      4.694742186
Ge     10.207589953      9.914059011      3.588097307
Se     10.636424080      1.071421939      3.421096961
Ge     10.333417802      8.964880484      8.272757356
Ge      5.282058482      9.734966744      9.101335767
Se      9.895813801      3.259969243      0.879059650
Ge      0.365420849      6.364055898      5.322963682
Se      8.126245525      7.089683658      4.068461377
Se      5.358973419      0.756016357      8.223788468