50
config_type=amor Lattice="   11.36344   0.00000   0.00000   0.00000  11.36344   0.00000   0.00000   0.00000  11.36344"   Properties=species:S:1:pos:R:3:forces:R:3 energy=-11023.4700 pbc="T T T"
Se      2.617175379      5.561155551      6.690939884      0.217979809     -0.415291138      0.536874444
Se      3.455047062      2.470141717      3.590922798      0.789694342      0.054475884      0.017624988
Se      8.366871885      5.283392376      3.772706455      0.084443980     -0.430431870     -0.513235772
Se      0.762088946      9.051031187      0.438427433      0.166501459     -0.225832884      0.011837565
Se     10.872483767      6.697368385      8.659294572     -0.370389933     -0.304247495     -0.177350987
Se      4.733760942      2.867333331     11.237855430     -0.311396710      0.113930786      0.358877553
Se      0.603511534     10.853712524      8.260077376     -0.069384441     -0.336568976      0.077404105
Se      4.698296008      2.227935825      7.326809144     -0.122098781      0.365423918     -0.245627549
Se      5.645711496      5.869931259      1.490256548     -0.019116303     -0.675480324      0.073968339
Ge      4.212846846      4.392156250      9.148123243     -0.059511108      0.032268005      0.121098691
Se      6.211124880      5.867437238      8.657684917      0.162544681      0.226781111     -0.790503001
Ge      0.619278185      5.156919227     10.388712176     -0.087831146      0.101028010     -0.063709432
Ge      7.053772805      6.429533105     10.838019371     -0.121383508     -0.119588352      0.204100722
Se      1.108715186      3.289663784      8.780640707     -0.216933253      0.045287072     -0.706820770
Ge      6.165686208      9.471705320      4.813925826     -0.087636821      0.111025653      0.045012571
Se      8.261573179      0.668695124      0.051771304      0.431185590     -0.058496860     -0.612926724
Se      7.518699544      1.904333988      4.525264484     -0.077738061      0.022249139     -0.989814635
Ge      3.552055429      7.355660232      1.237651705     -0.137600335     -0.268437346     -0.264198538
P       9.199793785      7.266130744      0.295138598      0.259671409     -0.068971086     -0.492120958
Ge     10.153510466      5.117040002      1.228834892     -0.199804950     -0.200912058     -0.199205064
Ge      7.041194575      2.518499866      1.253500215      0.032911929      0.105478999     -0.235124419
Se      0.888461616     10.614547571      3.948031517      0.037033446     -0.488253405      0.258995168
Se      8.470499843      3.994298910     11.061862780      0.064606332     -0.155134867     -0.568173554
Ge      7.241240618     10.013095304      0.930955497     -0.061363495      0.303390023     -0.405475972
Se      2.278505913      6.515296535      3.160584194     -0.677566325      0.316531594      0.362270313
Se      0.722892245      1.522880653      0.767461488     -0.534737376      0.379552063     -0.121783392
Ge      0.805468419      7.231033402      6.452006605     -0.054770939     -0.031401605      0.134711760
Ge      6.181605589      0.448648822      6.161962388     -0.005612517      0.027520933      0.008373371
Ge      1.869432711      1.170380656      9.768997067     -0.413935420     -0.073335476      0.055895171
Ge      2.456610271      0.447332204      2.329859835     -0.097055643     -0.066292561      0.034649739
Se      4.092801390      8.697783509      5.737909739     -0.728813776      0.391501761      0.593762406
Se      6.045224714      8.875494161     10.506693424     -0.171907798      0.112691902     -0.550877191
Ge      3.881258005      9.900891705      0.632915054      0.013086399      0.070815604     -0.098831516
Se      0.105856840      3.424244719      4.141482081     -0.395345487     -0.528512400     -0.125456411
Ge      2.204564424      2.909394398      5.834252593      0.107796010      0.189945568      0.015086128
Se      2.868651443      6.336343054     10.416488537      0.211539125      0.488710338     -0.371912037
Ge      4.248981323      6.384009599      4.887970247     -0.119164329     -0.035574431      0.059376148
Ge      0.556173187      0.811160519      6.070622389     -0.097864044     -0.376588701      0.002601379
Ge      4.586440183      0.930609417      9.587175584      0.192878536      0.193915744      0.139899006
Ge      7.030883186      4.112639068      5.816152719      0.079355434     -0.037611435      0.002301414
Ge      6.902788474      7.290809550      3.285544605      0.007447126     -0.198032455     -0.084896087
P       8.682701211      8.482972321      2.015797202      0.296652724      0.182596400      0.439954097
Ge      1.805255478      4.046876842      2.279928415     -0.013615443     -0.167055473      0.057169678
Ge     10.384145781      5.268927151      5.415538599      0.063206982     -0.185401760     -0.074914864
Ge     10.663125495     10.715969208      1.744344472      0.442537954      0.010737191     -0.105287922
Ge     10.374343443      8.920472844      9.873350356      0.361655557      0.033103352      0.189915584
Ge      9.310198502      1.437518809      6.280368372      0.097863093     -0.006628127      0.039241813
Se      5.483877623     10.652368157      2.518979910     -0.249774397      0.615388607      0.419383364
Se      9.236276704      3.831227796      7.165448718      0.147127208      0.199364635      1.052754266
Se      7.977194038      0.143067904      7.818961215      0.098259155     -0.464781234      1.026389095
50
config_type=amor Lattice="   11.36344   0.00000   0.00000   0.00000  11.36344   0.00000   0.00000   0.00000  11.36344"   Properties=species:S:1:pos:R:3:forces:R:3 energy=-11033.8853 pbc="T T T"
Se      3.052192781      5.603216870      6.553102292     -0.216143863     -0.140476324      0.501960549
Se      3.413480052      2.273581967      3.671470689     -0.432867574      0.357947863     -0.067900833
Se      8.450997280      5.259430385      3.438739130      0.180337405     -0.195402588      0.375010532
Se      1.174754392      9.001019911      0.089988840     -0.237828718     -0.044663688      0.227212553
Se     10.593688902      6.678467805      8.453988866      0.409842920      0.098204325      0.333226383
Se      4.552823294      2.782870398     11.108891753      0.094123765      0.206774543      0.170206240
Se      1.068464105     10.459246422      8.136609389     -0.205303823      0.004853020      0.017602313
Se      4.914646422      2.297354836      7.549084339     -0.624842252      0.206571905     -0.079560586
Se      5.950553561      5.677803683      1.381081134     -0.817679438      0.399374102     -0.204448384
Ge      4.348492180      4.708508909      8.708314841      0.166825571      0.400002134      0.522637218
Se      6.560458144      5.990837030      8.305407589     -0.607839892      0.176971222      0.282435781
Ge      1.346778591      4.478266589     11.318692823      0.089355762     -0.244303732     -0.161126189
Ge      7.237096662      6.413684153     10.605967060     -0.214744598     -0.005703125      0.524386927
Se      1.348621399      3.013245791      8.922708473     -0.224903174      0.023187865      0.442609065
Ge      6.488494097      9.535913984      4.808697348     -0.205964038     -0.221133523      0.444893039
Se      7.907855930      0.693511342      0.234608928     -0.053121050      0.137231789      0.010814139
Se      7.216655685      1.880266069      4.438847446      0.506116886      0.414449522      0.035455795
Ge      3.893907943      7.150043387      1.257607351     -0.358403436     -0.402087307      0.404832488
P       9.284963292      7.224504097      0.265521666      0.066110079      0.092347250     -0.336965173
Ge     10.022598668      5.000464956      1.083453962     -0.071549224     -0.042466293      0.232622451
Ge      6.539941838      2.609449746      1.368599076      0.252676066     -0.307591137     -0.154698652
Se      0.292783670     11.010149084      3.674137146      0.180305465     -0.184558104      0.121430820
Se      8.230053337      3.903359661     11.127179643      0.269663145     -0.174198232     -0.093574131
Ge      7.112979784      9.967991899      1.044771695      0.093949550     -0.081471788     -0.466139727
Se      2.340106200      6.551546585      3.158948815     -0.038927476     -0.226235384     -0.323548047
Se      0.650721427      1.513984700      0.763253874      0.180870303     -0.311580363     -0.295964264
Ge      0.948835932      7.509906831      7.050935334      0.240073472      0.184147765     -0.470408802
Ge      5.984560950      0.490335752      6.124838577      0.254139710     -0.279568651      0.144857338
Ge      1.918668117      0.764089660      9.947786975      0.286673420     -0.079937451     -0.254741713
Ge      2.335524064      0.378943146      2.390199528      0.018863022     -0.179922801     -0.034445921
Se      4.193392838      9.180751094      5.765509412     -0.070817313     -0.071201129      0.086360582
Se      5.992126131      8.726243723     10.622883923      0.070697056      0.408102688     -0.093396434
Ge      3.695291504      9.603361042      0.644631534      0.073226033      0.654997509      0.033729480
Se     10.933636404      3.348469922      4.332963125      0.784831405      0.347113825     -0.328953678
Ge      2.518139580      2.979483405      6.708927079      0.045541373     -0.287918633     -0.720944491
Se      2.967440912      6.302904831     10.541528085     -0.354108835     -0.356727881     -0.260587745
Ge      4.362861305      7.031778132      4.718174092      0.134518820     -1.044055428      0.096506289
Ge      0.297075328      1.291110718      5.746281874     -0.061145609     -0.111158064     -0.237786875
Ge      4.826375823      0.782847128      9.754000563      0.053743792      0.025632153     -0.125526425
Ge      6.834189866      4.286091494      5.345717318      0.155835959     -0.367326392      0.107928962
Ge      6.989995574      7.195242351      3.121310925     -0.273843247      0.443771106      0.462374169
P       8.688403555      8.425260379      1.938800888      0.167446433      0.140879161     -0.191511711
Ge      1.692525091      3.869195120      2.834851014      0.074005870      0.081729328     -0.190578064
Ge     10.094985359      5.603867078      5.461678306      0.362187168     -0.635947543     -0.077946110
Ge     10.842159619     10.501129165      1.126884270     -0.423539325      0.437614708      0.414439853
Ge     10.729608755      9.064834047      9.501550635      0.021686146      0.267203130      0.128814597
Ge      9.020440951      1.600540007      6.339575209     -0.056512709      0.068253946     -0.040996189
Se      5.396794908     10.291322340      2.715423260     -0.058405544      0.384270664     -0.172832323
Se      8.768866886      4.057888111      7.078554641     -0.024938698     -0.194820106     -0.226873712
Se      7.664006142      0.452341591      8.011164286      0.348163969     -0.104807168     -0.321823089
50
config_type=amor Lattice="   11.36344   0.00000   0.00000   0.00000  11.36344   0.00000   0.00000   0.00000  11.36344"   Properties=species:S:1:pos:R:3:forces:R:3 energy=-11034.0049 pbc="T T T"
Se      3.049445714      5.176879274      6.634245665     -0.389345833     -0.196854019      0.707872524
Se      3.100555062      2.416765491      3.184027786     -0.180245387     -0.338861117     -0.174981567
Se      8.810992716      5.188530918      3.513883415     -0.114755472      0.331081651      0.025793528
Se      0.857669919      9.280323719     10.943981357     -0.605742844     -0.700153012      0.147286739
Se      0.746815132      7.279643104      7.831553976     -0.115303502     -0.216089370     -0.499117728
Se      4.442316290      2.685174280     11.021506991      0.225254436     -0.338960230      0.749967585
Se      1.586015620     10.541499052      7.552146738      0.265341971      0.274622475     -0.605740966
Se      5.513038723      2.265109929      7.800557010     -0.470588212      0.117566862     -0.086886684
Se      5.421410450      6.258996361      1.518111165     -0.195003770     -0.284128636      0.118058764
Ge      3.800588673      4.491764357      9.169614644     -0.134969991     -0.102521179      0.037605740
Se      5.830852327      5.968207573      9.025490601      0.331441894      0.075216214     -0.227070864
Ge      0.065852901      6.655295406     10.242249413     -0.087706340      0.811737651     -0.289943092
Ge      7.029155775      5.754036706     11.099135649     -0.291644239     -0.251174051     -0.219059488
Se      1.309767967      2.522987994      8.529643195      0.036680742      0.469573648     -0.515393741
Ge      6.071505087      9.510634747      4.766684917      0.131843435     -0.544815505      0.116436891
Se      7.848623455      0.829835524      1.373712864      0.295425645      0.031617815     -0.127581119
Se      7.520355541      1.883067065      4.856183135      0.091873846     -0.097067235     -0.438844891
Ge      2.948550643      7.486031442      1.453040435     -0.007878603     -0.683247571     -0.194637118
P       8.848075033      7.168700272      0.056134983     -0.045592175      0.450481256      0.277578535
Ge     10.000460799      5.189130832      1.139291419     -0.299566969     -0.094594323      0.367456229
Ge      5.174296175      3.148253203      2.054377106      0.789682045      0.023983897     -0.594679037
Se      0.134079442     10.986115248      3.155335665     -0.038935066     -0.159910687     -0.103802574
Se      8.170918164      3.656881305      0.252273179     -0.158571851      0.373656149     -0.299969463
Ge      6.805380353     10.060423558      1.171567707      0.765467766     -0.012738729      1.748005011
Se      2.263145970      5.881363945      3.246800193     -0.217040984      0.423420343     -0.133034232
Se      0.220327803      1.330018618      0.078119252      0.125629327      0.710663302      0.107796915
Ge      3.012481978      8.536876077      8.071434634      0.006940250     -0.521842198      0.419022304
Ge      6.298151785      0.302691838      6.357145354     -0.233538946      0.067303990      0.226305117
Ge      2.086110071      0.520335484      9.669852671      0.357339009      0.307333528      0.171035504
Ge      1.945313139      0.663971025      1.732310052     -0.052486884     -0.833918474      0.161933445
Se      4.246397196      8.092195953      5.748899863     -0.009363501      0.137353226     -0.179294448
Se      6.051040537      9.740531289     10.470981237     -0.986553949      0.264011161     -1.789833872
Ge      3.264235103     10.123145421      0.433294584      0.297163860     -0.167749627     -0.298689078
Se      0.379653406      3.253929943      4.586348195     -0.033662483      0.766449065     -0.420126495
Ge      2.640266959      2.754270538      6.251392840     -0.190074406     -0.558729125      0.268710414
Se      2.177756249      5.813435458     10.987454399      1.205032565     -0.508794896      0.739197626
Ge      4.457830197      5.706039947      4.742179186      0.228924882      0.237094177     -0.271714520
Ge      0.302090215      0.940801043      5.339147827      0.115407722     -0.561272709      0.203336786
Ge      6.669955153      1.356705557     10.119988484     -0.045063187     -0.266769992      0.375166845
Ge      6.954166216      3.921635467      6.436716864     -0.028999843      0.224801118      0.093460975
Ge      7.022006883      7.114076829      3.359923672      0.541345302      0.146951739     -0.122432706
P       8.477595968      8.439408906      1.784901275     -0.405124078     -0.122530316      0.435057120
Ge      1.361006593      3.714166838      1.707946947     -0.217208672      1.068194096      0.223215609
Ge     10.647730795      5.322488162      5.595608439     -0.404218600     -0.044901924     -0.364652106
Ge     10.019602116     10.705433851      0.928885112      0.188342526      0.059506910      0.225633371
Ge     10.970246706      9.453896273      8.563063550     -0.103014335     -0.160110577      0.314475584
Ge      9.363464332      1.420055688      6.482994842      0.053778643      0.263805093      0.142671875
Se      4.925312522     10.393105231      2.736363610     -0.025964420      0.023080495     -0.178394105
Se      9.468384239      3.871538270      7.330567973     -0.420747870     -0.357186978      0.275282465
Se      8.164437715     11.141785246      7.955887007      0.449940367      0.241776610     -0.228154332
50
config_type=amor Lattice="   11.36344   0.00000   0.00000   0.00000  11.36344   0.00000   0.00000   0.00000  11.36344"   Properties=species:S:1:pos:R:3:forces:R:3 energy=-11034.1430 pbc="T T T"
Se      2.842242763      5.335391978      6.628834183      0.308116826     -0.546992647      0.102693468
Se      3.515977567      2.462071197      3.800938335      0.037487627      0.598552268     -0.903354436
Se      8.491287645      4.989827243      3.203396030     -0.251999789      0.267790186      1.194179707
Se      1.068298116      8.875069378     10.988371025     -0.468008444      0.378878316      0.063293953
Se      0.740168919      7.744963140      7.479781979     -0.313542999      0.265433030      0.587679237
Se      4.374014073      2.141869821      0.123109673      0.489300204      0.084567243      0.152831430
Se      2.635202139     10.737053454      8.347891746     -0.629630932      0.014494553     -0.610065757
Se      5.275602345      2.159938731      7.281056466      0.136755569      0.517013856     -0.135191619
Se      5.355535194      5.928285613      1.810383907      0.608294891      0.024648394     -0.263036601
Ge      3.965690838      4.450728796      8.838483575     -0.200022977      0.086141943      0.419737277
Se      5.590411023      6.372043430      9.063696017      0.036995792      0.098683456     -0.632643452
Ge     11.359356429      6.851446552     10.031604961      0.644473133     -0.336970434     -0.456231930
Ge      6.722055123      6.049909203     11.072816171      0.050288015     -0.305498820      0.690846191
Se     11.269707973      2.374132411      8.364839997      0.779022404     -0.620803113     -0.538747150
Ge      6.051772460      9.263874446      5.131155296      0.808759831     -0.259894479      0.187767697
Se      8.083393756      0.876658065      0.849062744     -0.820870572     -0.310275015     -0.153360889
Se      7.734362059      1.461620928      4.281449714     -0.696470139      0.097948835      0.005543112
Ge      3.234856802      7.091112671      1.197758600     -0.178106566      0.468987645     -1.020940763
P       8.670192447      7.253252263      0.199158780      0.601996127      0.268616386      0.141482625
Ge      9.841572353      5.237369339      1.154847879     -0.302661140     -0.302667099     -0.880919690
Ge      5.911578498      2.978905049      2.136733234     -0.105841838     -0.359461513     -0.780629027
Se      0.134342641     11.004774977      3.293013961      0.312248351     -0.127884805     -0.504940350
Se      7.769278890      3.899143115     11.285062421      0.742326137     -0.172806919      0.187833766
Ge      6.993934656     10.103351328      1.386930677      0.239632031      0.429028306     -0.409566992
Se      2.055800436      6.485822144      3.202602502     -0.623925788     -0.169814260      0.332277363
Se      0.802862653      1.074872139      0.189891935     -0.707357885      0.322925483      0.026480529
Ge      3.195046726      8.274454379      8.211029908     -0.333450071     -0.537744273      0.663536473
Ge      6.438442305      0.231126260      6.205730636      0.117690497     -0.136897657     -0.088066103
Ge      2.148914942      1.506386354      9.441819918     -0.331794087      1.132363624      0.256688598
Ge      2.231396681      0.492221154      2.069461756     -0.052216085     -0.522642898      0.405901544
Se      3.814179441      8.601656494      5.776494539     -0.343065814     -0.156075747     -0.612545811
Se      5.792561852      9.493628028     10.631607484      0.056071186      0.450078429      0.805880161
Ge      3.712934382      9.730611733      0.953415237     -0.571822733     -0.272608044     -0.805509974
Se      0.171943944      3.518405401      4.638327253      0.133772104     -0.285762371     -0.000124492
Ge      2.903180566      2.773674413      6.200978862     -0.618855030     -0.293463139      0.276187774
Se      2.249846061      5.557263376     10.785130912     -0.117313644     -0.107572201      0.229016039
Ge      4.192869352      6.220559527      4.605404190     -0.097275803     -0.053211849      0.844883487
Ge      0.439501961      1.186749318      5.922343664     -0.000585236      0.780874059      0.491512203
Ge      6.277051115      0.886792568     10.164034070      0.069080125      0.077518551      0.506065439
Ge      6.540632899      3.578715493      5.249045137      0.139317301     -0.453638029      0.321874734
Ge      7.269779370      7.188036774      3.502802994     -0.508089682     -0.354879650     -0.130293142
P       8.654287953      8.506343218      2.006482361     -0.397756112     -0.401196630     -0.288795366
Ge      1.612068779      4.035901031      2.397988428     -0.188519164     -0.491625083      0.469663730
Ge      9.927506778      5.203357837      5.620343801      0.427734828      0.375117588     -0.546674879
Ge     10.610693644     10.340229863      0.962495182      0.297716066      0.640728005      0.076986514
Ge      0.041023408     10.047869458      8.614856372      1.157746176     -0.351923439      0.119861991
Ge      9.266627364      1.458308179      6.224622991      0.788580263     -0.351398370      0.608055656
Se      5.104603140     10.223078386      3.006871665      0.522652615      0.394308693     -0.159463605
Se      8.560107646      3.683234934      7.010423137     -0.305533912     -0.016976259      0.266910449
Se      8.352280505     11.094630770      7.772808280     -0.385486710      0.375463147     -0.418590944
50
config_type=amor Lattice="   11.36344   0.00000   0.00000   0.00000  11.36344   0.00000   0.00000   0.00000  11.36344"   Properties=species:S:1:pos:R:3:forces:R:3 energy=-11033.3153 pbc="T T T"
Se      2.711738765      4.519594090      6.326824513     -0.497928866     -0.223564948      0.292805889
Se      3.451335890      2.469062899      3.121183977     -0.357354291      0.180240834      0.040888168
Se      8.088481131      5.317402222      3.697958580      0.772322490     -0.455193099     -0.193727249
Se      0.439166315      8.878912423     11.224745380     -0.004732700     -0.016431171     -0.321489265
Se      1.420848455      7.719748296      7.801921996     -0.653693112     -0.362220874      0.115411997
Se      5.177861007      2.235198098     11.157475982      0.044076229      0.098485914      0.615033327
Se      3.009617058     10.816382670      9.055342591     -0.395518270     -0.066597746     -0.349732681
Se      5.197796087      2.254238388      7.834478644     -0.164140701     -0.779713098     -0.710631798
Se      5.210713878      6.264063360      1.327702767      0.573011450     -0.244160673     -0.130516333
Ge      4.264543521      3.896133657      9.470105012     -0.593477960      0.236962300     -0.018158297
Se      5.809238565      5.981444536      8.882776859      0.309080512     -0.105245991     -0.269408107
Ge      0.120122403      6.654409751      9.907215885      0.122135746     -0.067044629     -0.079909339
Ge      7.050554485      6.323969842     10.922788433     -0.496494031     -0.690615609      0.660491340
Se      0.222866837      2.542448817      8.058923673      0.113814263     -0.641905305      0.054685058
Ge      6.214549400      8.909797917      4.887936967     -0.433568682      0.407422355     -0.103137318
Se      8.167772086      1.186998588      1.367759634     -0.756350949     -0.146322063      0.147255053
Se      6.648712940      1.215546392      4.769581414      0.412535474      0.411951329     -0.363858662
Ge      2.616428395      7.633255576      0.731345242      0.033341351     -0.943086011      0.343053917
P       8.923602408      7.408516934      0.476134778      0.632327708      0.085226913     -0.761519336
Ge      9.830127323      5.431712722      1.694233117     -0.468927201     -0.270866489      0.053421850
Ge      6.303439395      3.406548761      1.916122224      0.280624296      0.171213834     -0.673134806
Se      0.333205810     11.151341675      2.974322482     -0.462964616     -0.341442225      0.373434966
Se      8.519255320      4.139316590     11.166091934     -0.747902587      0.276186542      0.525593109
Ge      6.882445740     10.314438319      1.625728892      0.490647276     -0.391151168     -1.069766459
Se      1.855303418      6.661380054      3.049050154      0.005960915     -0.204463623      0.157530652
Se      0.521062600      2.061165206      0.319994443      0.391933227     -0.203661390     -0.600227950
Ge      3.891886594      7.868456043      8.287387544      0.282213251      1.074155855     -0.220310827
Ge      5.790806377     11.058671091      6.637874764      0.335754783      0.234929842      0.424238339
Ge      2.372567481      1.904871495      9.521667441     -1.013581527      0.557032846     -0.230585817
Ge      2.242491207      0.686275283      1.694864707      0.090738450      0.292645319     -0.086662857
Se      3.879304034      8.460072640      5.620725214     -0.227517461     -0.518677632      0.900683931
Se      6.061335705      9.758527579     10.639438936      0.153415235      0.295422414      0.605354190
Ge      3.609577761     10.108751664      0.074566618      0.355254866     -0.243745837      0.101686250
Se     10.956708289      3.400438179      4.386497930     -0.147173868     -0.970724265     -0.729576541
Ge      2.818950365      1.923237136      5.560808335      0.145567802      0.795944237      0.120289609
Se      1.972349625      5.258670716     11.118016559     -0.127719907      0.786216731     -0.221592598
Ge      3.878284647      6.052256085      4.729204571      0.113491604     -0.081989865     -1.036803973
Ge     11.168689137      1.043162673      5.412014075      1.997581136      0.402217603     -0.518316163
Ge      7.388646866      1.533384245      9.950458058     -0.224484382     -0.091436490      0.005284562
Ge      6.463269892      3.626864934      6.034338302     -0.906647875     -0.095698810     -0.465016104
Ge      6.728457700      7.164770260      3.139237780     -0.599553188     -0.327152805     -0.097128008
P       8.445762006      8.471333042      2.216987191     -0.426691231      1.009482883      0.357746707
Ge      1.173541567      4.112644927      2.222170811      0.193463885      0.487583750      0.151875536
Ge     11.250565066      4.532113360      6.473816740      0.511424868      0.566695442      1.055261803
Ge     10.323409523     11.321537764      0.764097806      0.689543181     -0.081156155      0.051039720
Ge      0.536474014     10.011721979      8.655396961      0.647275560     -0.504196283      0.691583338
Ge      8.837613409      1.140052914      6.041843540     -1.699571512     -0.839281059      0.718829328
Se      4.893217062     10.006694843      2.906897739      0.270906884      0.146025868      0.328766439
Se      8.291184903      2.964798593      7.430032239      1.311048533      0.942813690      0.811568955
Se      8.128149313     10.680066074      7.615435294      0.017810633      0.316929583     -0.172674302
50
config_type=amor Lattice="   11.36344   0.00000   0.00000   0.00000  11.36344   0.00000   0.00000   0.00000  11.36344"   Properties=species:S:1:pos:R:3:forces:R:3 energy=-11033.9996 pbc="T T T"
Se      2.307468749      4.984395821      6.671026401      0.487857714     -0.054048324     -0.103868388
Se      3.418671962      2.691842551      3.539326161      0.007735943      0.388437117     -0.048261468
Se      8.396052947      5.105871836      3.319664443      0.104502892     -0.627152857     -0.129268587
Se      0.768462567      9.177154212     11.070751008      0.299090379      0.384603339     -0.384860308
Se      1.211124916      7.702245565      7.536800420     -0.049070517      0.326919353      1.013824816
Se      4.649552936      1.114518634     10.783537439      0.276235658     -0.043485305      0.561363017
Se      2.637561669     10.954175158      7.980558618     -0.674207111     -0.035182398      0.031373412
Se      4.895068806      2.609040460      7.109914606      0.380230474     -0.301236567     -0.161224737
Se      5.209851648      5.930423537      1.544178543      0.219296541      0.467729313     -0.086486617
Ge      3.607371443      4.234380339      8.802248053      0.067414845      0.449047489      0.227630382
Se      5.600965934      5.989538456      8.357660105     -0.253200817      0.210319234      0.909439460
Ge      0.277201533      6.904481100     10.047589918     -0.188188932     -0.130679989     -0.114028560
Ge      6.198190151      6.935098802     10.658648728      0.711878383     -0.966844710      0.404140976
Se     11.247423319      2.525890433      8.460481343      0.216430010      0.068076225     -1.035696204
Ge      6.124871307      9.022885338      5.165939094      0.222364849     -0.732042049     -0.246247130
Se      7.889463771      0.661453948      0.710690060      0.331380740      0.576191371     -0.388382666
Se      7.533373635      1.333141230      4.464313186     -0.528718414      0.349291430     -0.013527920
Ge      3.131726128      7.497127388      1.557520914     -0.818969832     -0.947058967      0.060313559
P       8.602162617      7.069458499      0.088677803     -0.018381463      0.545426523      0.209160945
Ge      9.968524773      5.205837097      1.096738281     -0.243358850      0.399921048      0.174197108
Ge      6.997811627      3.429512575      1.487957693      0.395830705     -0.254253411     -0.056393821
Se      0.683006676     10.994136368      3.694568506     -0.520472465     -0.384917313      0.335315932
Se      8.702684484      3.652287442     11.018227321     -0.358001034     -0.056184221      0.423749753
Ge      6.914414951      9.956818724      1.259409497     -0.227647262      0.327687003     -0.287162878