50
config_type=amor Lattice="   11.36344   0.00000   0.00000   0.00000  11.36344   0.00000   0.00000   0.00000  11.36344"   Properties=species:S:1:pos:R:3:forces:R:3 energy=-11033.3153 pbc="T T T"
Se      2.711738765      4.519594090      6.326824513     -0.497928866     -0.223564948      0.292805889
Se      3.451335890      2.469062899      3.121183977     -0.357354291      0.180240834      0.040888168
Se      8.088481131      5.317402222      3.697958580      0.772322490     -0.455193099     -0.193727249
Se      0.439166315      8.878912423     -0.138697850     -0.004732700     -0.016431171     -0.321489265
Se     12.784291685      7.719748296      7.801921996     -0.653693112     -0.362220874      0.115411997
Se      5.177861007      2.235198098     -0.205967248      0.044076229      0.098485914      0.615033327
Se      3.009617058     10.816382670      9.055342591     -0.395518270     -0.066597746     -0.349732681
Se      5.197796087      2.254238388      7.834478644     -0.164140701     -0.779713098     -0.710631798
Se      5.210713878      6.264063360      1.327702767      0.573011450     -0.244160673     -0.130516333
Ge      4.264543521      3.896133657      9.470105012     -0.593477960      0.236962300     -0.018158297
Se      5.809238565      5.981444536      8.882776859      0.309080512     -0.105245991     -0.269408107
Ge      0.120122403      6.654409751      9.907215885      0.122135746     -0.067044629     -0.079909339
Ge      7.050554485      6.323969842     10.922788433     -0.496494031     -0.690615609      0.660491340
Se      0.222866837      2.542448817      8.058923673      0.113814263     -0.641905305      0.054685058
Ge      6.214549400      8.909797917      4.887936967     -0.433568682      0.407422355     -0.103137318
Se      8.167772086      1.186998588      1.367759634     -0.756350949     -0.146322063      0.147255053
Se      6.648712940      1.215546392      4.769581414      0.412535474      0.411951329     -0.363858662
Ge      2.616428395      7.633255576      0.731345242      0.033341351     -0.943086011      0.343053917
P       8.923602408      7.408516934      0.476134778      0.632327708      0.085226913     -0.761519336
Ge      9.830127323      5.431712722      1.694233117     -0.468927201     -0.270866489      0.053421850
Ge      6.303439395      3.406548761      1.916122224      0.280624296      0.171213834     -0.673134806
Se      0.333205810     11.151341675      2.974322482     -0.462964616     -0.341442225      0.373434966
Se      8.519255320      4.139316590     11.166091934     -0.747902587      0.276186542      0.525593109
Ge      6.882445740     10.314438319      1.625728892      0.490647276     -0.391151168     -1.069766459
Se      1.855303418      6.661380054      3.049050154      0.005960915     -0.204463623      0.157530652
Se      0.521062600      2.061165206      0.319994443      0.391933227     -0.203661390     -0.600227950
Ge      3.891886594      7.868456043      8.287387544      0.282213251      1.074155855     -0.220310827
Ge      5.790806377     -0.304772139      6.637874764      0.335754783      0.234929842      0.424238339
Ge      2.372567481      1.904871495      9.521667441     -1.013581527      0.557032846     -0.230585817
Ge      2.242491207      0.686275283      1.694864707      0.090738450      0.292645319     -0.086662857
Se      3.879304034      8.460072640      5.620725214     -0.227517461     -0.518677632      0.900683931
Se      6.061335705      9.758527579     10.639438936      0.153415235      0.295422414      0.605354190
Ge      3.609577761     10.108751664      0.074566618      0.355254866     -0.243745837      0.101686250
Se     -0.406734941      3.400438179      4.386497930     -0.147173868     -0.970724265     -0.729576541
Ge      2.818950365      1.923237136      5.560808335      0.145567802      0.795944237      0.120289609
Se      1.972349625      5.258670716     11.118016559     -0.127719907      0.786216731     -0.221592598
Ge      3.878284647      6.052256085      4.729204571      0.113491604     -0.081989865     -1.036803973
Ge     -0.194754093      1.043162673      5.412014075      1.997581136      0.402217603     -0.518316163
Ge      7.388646866      1.533384245      9.950458058     -0.224484382     -0.091436490      0.005284562
Ge      6.463269892      3.626864934      6.034338302     -0.906647875     -0.095698810     -0.465016104
Ge      6.728457700      7.164770260      3.139237780     -0.599553188     -0.327152805     -0.097128008
P       8.445762006      8.471333042      2.216987191     -0.426691231      1.009482883      0.357746707
Ge      1.173541567      4.112644927      2.222170811      0.193463885      0.487583750      0.151875536
Ge     11.250565066      4.532113360      6.473816740      0.511424868      0.566695442      1.055261803
Ge     10.323409523     11.321537764      0.764097806      0.689543181     -0.081156155      0.051039720
Ge     11.899917244     10.011721979      8.655396961      0.647275560     -0.504196283      0.691583338
Ge      8.837613409      1.140052914      6.041843540     -1.699571512     -0.839281059      0.718829328
Se      4.893217062     10.006694843      2.906897739      0.270906884      0.146025868      0.328766439
Se      8.291184903      2.964798593      7.430032239      1.311048533      0.942813690      0.811568955
Se      8.128149313     -0.683377156      7.615435294      0.017810633      0.316929583     -0.172674302
50
config_type=amor Lattice="   11.36344   0.00000   0.00000   0.00000  11.36344   0.00000   0.00000   0.00000  11.36344"   Properties=species:S:1:pos:R:3:forces:R:3 energy=-11033.6890 pbc="T T T"
Se      2.042027828      4.862939539      6.562470052      0.268404356     -0.162970957     -0.368967710
Se      3.106233686      2.972729415      3.385694362      0.261979415      0.168299926     -0.330718961
Se      8.503758438      5.161661588      3.468227421      0.349504982     -0.089537530     -0.296528050
Se      0.372961907      8.646425492      0.003699542      0.206282242     -0.556461271      0.336688026
Se     12.678016931      7.531372009      7.670521060     -0.142298094      0.027434939      1.122857781
Se      4.791235541      2.552202745     -0.156236400     -0.879711827     -0.062241175      0.063478466
Se      2.811384717     10.442398867      9.158754871      0.471704914      0.169049239     -0.184359908
Se      4.880965215      2.399141200      7.141985469     -0.185947245      0.483776865      0.408910503
Se      5.417668837      6.199394997      1.643698939     -0.107991730     -0.540827984     -0.445644266
Ge      3.977067890      4.330859655      9.132490022     -0.545023522     -0.484024743      0.096849689
Se      5.958010182      5.838610720      8.707432755     -0.161946650      0.021897883     -0.931107370
Ge      0.304084182      6.371612730     10.069835826      0.297156300      0.385046529     -0.390847950
Ge      6.831871265      6.337515973     10.811388670      0.550931388     -0.100738647      1.896799482
Se      0.102155814      2.241994487      8.350836230      0.420230064     -0.319164219      0.293347848
Ge      6.243697136      9.112022218      4.901205112     -0.418380429      0.120188108     -0.050863426
Se      8.126415170      0.799274289      0.854244087     -0.498174742      0.394585897     -0.139036568
Se      7.562328825      1.066927452      4.477279521      0.002803410      0.018466130      0.230849093
Ge      3.056619583      7.529510303      1.207660151     -0.264047367     -0.175188268     -0.038900604
P       8.987648422      7.469418621      0.051252204     -0.916542320      1.130547555     -0.372899509
Ge      9.726970204      5.520709708      0.938461819      0.695166121     -2.041893988      0.974010766
Ge      6.636925670      2.948192720      1.604618564      0.204310411     -0.220790037      0.244140714
Se      0.775224008     11.446325126      3.574210182     -0.236032086     -0.380682532     -0.491854882
Se      8.170103511      3.779818676     11.156844389      0.372185398      0.871237298      0.005576777
Ge      6.945254354     10.114753366      1.419930552      1.244435721     -0.044195263      0.117700676
Se      1.741868181      6.797018290      3.221165168     -0.068648557     -0.165319360     -0.115952230
Se      0.736950871      1.995336970      0.499274172     -0.556449849     -0.270865257     -0.221258024
Ge      3.891947344      7.919565367      8.343595480     -0.608237413      0.319779136     -0.818936777
Ge      5.855234609      0.291254621      6.386616705      0.639555481     -1.088916622     -0.386559479
Ge      2.106316527      1.581395992      9.717967600     -0.096196846      0.776965619     -0.226620318
Ge      2.542538203      0.938051663      1.877055788      0.051872760     -0.091605354      0.708191625
Se      3.990882113      8.308277423      5.617025020      0.017916401     -0.297664903      0.788074966
Se      6.182331328      8.952512808     10.895386048     -1.012034273      0.492909238     -1.658378744
Ge      3.890017323      9.868989024      0.185383111     -0.389093992      0.223720210      0.160516304
Se     -0.453875867      2.994600859      4.316486346      0.494258987      0.641895541     -0.096312173
Ge      1.863521957      2.532292956      5.496311093     -0.286866164      0.486229868     -0.286594117
Se      2.451983031      5.565868206     11.092192327     -0.037739366     -0.080617004      0.197421416
Ge      3.654940352      5.779582710      4.627755298     -0.267323646     -0.110180562      0.260281353
Ge      0.628346143      0.500196755      6.627810084     -0.399131276     -0.031347759      0.345144467
Ge      6.369949398      1.977268251      9.385737904      0.946515380      0.257432082     -0.706800585
Ge      6.861974132      3.274368764      5.315195934     -0.524935778      0.879889394     -0.135592548
Ge      6.983097275      7.046892726      3.317851170      0.432259860      0.839062720     -0.330091997
P       8.594971146      8.479774784      1.940870319     -0.210344591     -0.372733428      0.645364307
Ge      0.822318814      4.391743191      2.128253714      0.383855977     -0.288083682      0.318124798
Ge     10.344840945      5.091633702      5.582047492     -0.011953942     -0.247211563     -0.154455940
Ge     10.680691052     11.251112873      1.512843352      0.512525872     -0.075000626      0.038702139
Ge     11.851363413      9.588001424      9.047897896     -0.283945832      0.014272434     -0.835611957
Ge      9.132081592      1.329964488      6.530174419      0.843813280     -0.842007774     -0.238618423
Se      5.019632099     10.112128842      2.741392230     -0.077315567     -0.008379491      1.216032192
Se      8.678494400      3.665816757      7.110650580     -0.246569221      0.297172712      0.323746542
Se      7.747975059     -0.085150372      8.080105100     -0.270320674     -0.065844931      0.012744010
50
config_type=amor Lattice="   11.36344   0.00000   0.00000   0.00000  11.36344   0.00000   0.00000   0.00000  11.36344"   Properties=species:S:1:pos:R:3:forces:R:3 energy=-11033.1515 pbc="T T T"
Se      2.483424168      4.701001491      6.951702304     -0.288140779     -0.021846988      0.433201876
Se      3.401493966      2.842936124      3.395236227     -0.019307566     -0.017655604     -0.729162236
Se      8.707033132      5.112429483      3.340162061     -0.045045381      0.774824610     -0.284333695
Se      0.639909068      8.667270336      0.473277303      0.154345140     -0.434491819     -0.575374526
Se     12.604987488      7.737713078      8.278189168      0.477424866      0.384684895     -0.403456108
Se      5.017958382      2.022261609     -0.494673298     -0.123179059      0.163423331      0.006738492
Se      2.475564674     11.110288100      9.017406280      0.783622111      0.670482812      0.317270144
Se      4.870236892      2.560682346      6.864429123      0.643513083      0.070380441      0.440251658
Se      5.351935941      5.684720681      1.645506667     -0.026468719      0.460243235      0.053100211
Ge      4.307262712      3.998570413      9.079402652     -0.443612951      0.157201463     -0.358101953
Se      5.795583332      6.466980811      8.932190298     -0.680745057     -0.147994234     -1.186336064
Ge      0.311140881      6.469668696     10.147123378      0.132107598     -0.100677827      0.911164907
Ge      6.643929795      6.309164287     11.058128024      0.399704945     -0.401102764      0.841809930
Se     -0.459779085      2.140927508      8.347091428      0.519673024      0.100177923      1.298081325
Ge      6.326719624      9.126721053      4.859861982     -0.409826302     -0.204570503     -0.158521016
Se      8.414504520      0.851310065      0.092215205     -0.359730758     -0.451553242     -0.051458874
Se      7.707625344      1.785915552      3.943660809     -0.729410608     -0.261003218      0.553483258
Ge      2.857662964      7.307755159      1.354295261      0.226673288     -0.070393454      0.446158925
P       8.689857381      7.376233113      0.077193783      0.517857832      0.363373110      0.019489725
Ge      9.857688106      5.337747792      0.851306000     -0.437616457     -0.210239326      0.009598984
Ge      7.005762342      2.601755707      1.141888388     -0.309722804      0.311433367      0.458234322
Se     -0.020089980     10.991015989      3.569513622      0.216153477      0.275398945     -0.312929368
Se      8.030055082      4.135911980     10.686939547      0.193341732      0.199211569      0.303113863
Ge      7.138965701     10.148552707      1.126173726     -1.076326079     -0.015223118      0.020519261
Se      1.732982672      6.381963164      3.629444234     -0.122552481     -0.061952679     -0.415083620
Se      0.731166131      1.611108534      0.661548561     -0.268317999     -0.136709652     -0.203686849
Ge      4.015992019      8.470465461      8.449950928     -0.146276297     -0.479469655     -0.083394743
Ge      5.880637469      0.489264379      5.972287411     -0.429344242     -0.025112458     -1.121295297
Ge      1.775387613      2.302329028      9.717502040     -0.115551217     -0.776364993     -0.058524732
Ge      2.156672679      0.353421096      2.400911428      0.088636742      0.020146919      0.024396296
Se      4.250205747      7.966890677      5.920992507      0.100365580      0.614798198     -0.005330763
Se      5.569352126      9.552655796     10.479100896      0.786971793     -0.083556291      0.394675721
Ge      3.885095220     11.137453920     -0.044655766     -0.465311778     -0.090218154      0.086312031
Se     -0.187039269      3.085388595      5.039730564     -0.129368773     -0.023143496     -0.592800509
Ge      2.294786920      2.489445339      5.540509953      0.277375902     -0.453340992      1.036923944
Se      2.332877664      5.281932387     11.288556423     -0.083563884     -0.236010220     -0.090062851
Ge      3.677268539      5.502141820      4.929670997      0.541381797      0.355708460     -0.384390924
Ge      0.100836030      0.760141062      6.285838178     -0.014278638     -0.027626114     -0.504827207
Ge      7.145678292      1.793391577      9.003806174     -0.150411789      0.632132529      0.179501103
Ge      6.769379236      4.200671229      4.709389834      0.412019324     -1.251558712      0.465350085
Ge      6.929013333      6.960296955      3.185913325      0.566323951      0.430161504      0.114388413
P       8.655870688      8.477322098      1.978164434     -0.821726646     -0.310992965     -0.384240667
Ge      1.272949625      4.005182812      2.487570265     -0.069876621      0.365073369     -0.105968999
Ge     10.958043145      4.392875893      7.173839063     -0.308522129      0.230286070     -0.049427754
Ge     10.468425019     10.738127928      1.205468765      0.497320773      0.062724807      0.208793104
Ge     11.768589699      9.859599450      9.465599687     -0.435554537     -0.353475240      0.216449823
Ge      8.838664728      1.190985312      6.208840250      0.505317620      0.542149860     -0.892160617
Se      5.150702229     10.096052133      2.793823740      0.416586711     -0.124089844     -0.302264501
Se      8.326430027      3.524580390      6.928361873     -0.558652950      0.208302465      0.141230917
Se      7.470780294     -0.319485340      7.633043067      0.306717689     -0.733576975      0.578067657
50
config_type=amor Lattice="   11.36344   0.00000   0.00000   0.00000  11.36344   0.00000   0.00000   0.00000  11.36344"   Properties=species:S:1:pos:R:3:forces:R:3 energy=-11032.0623 pbc="T T T"
Se      2.355627004      4.742452262      6.769654181      0.165390783      0.117912222     -1.042188025
Se      3.530996431      2.625746578      3.611068029      0.434838022      1.203444451      0.151452345
Se      8.784204385      5.299423629      3.533490662      0.011361219      0.279708458     -0.531635798
Se      0.687575269      8.954462817      0.110022412      0.548455356      0.106550813     -0.163471654
Se     12.875366857      7.360704836      8.300069891     -0.262828412      0.912894752     -0.100658337
Se      4.967187277      2.066660903     -0.507291482     -0.189546476     -0.119566058      0.024789457
Se      2.674826669     11.212672138      8.806107458     -0.053892783     -0.062411953     -0.164100737
Se      5.317508548      2.549164145      7.353954023     -0.051534061      0.692170228     -0.441646427
Se      5.387773986      5.711026089      1.745718767     -0.122924351      0.659624104      0.343436722
Ge      3.913462522      4.223517299      8.566005444      0.296497336      0.536751437      1.254683447
Se      5.665596858      6.244445808      8.610893547     -0.198013523     -0.423907777      0.019807146
Ge      0.098480433      6.770723523     10.397356958      0.690120623     -0.681143507     -0.021566742
Ge      6.601410151      6.085223228     10.974782916      0.629131187      0.283314239     -0.352281803
Se     -0.396605985      2.198304285      8.238370146      0.489113526      0.133037532      0.155858135
Ge      6.077673809      9.106436192      4.873454488     -0.352483735      0.045581207     -0.217156018
Se      7.976394415      0.841921609      1.047764706      0.650927812     -0.516589534     -0.554101037
Se      7.078636997      1.294336451      4.278010929     -0.085385299      0.018136498     -0.346952294
Ge      2.999700236      7.326208325      1.654196923      0.635133849      0.507333558     -1.071381547
P       8.710443630      7.434396251      0.059406730     -0.425339089     -0.909849353     -1.490222380
Ge      9.790706630      5.627903185      1.196067134     -0.035687794     -0.974458359      0.841784687
Ge      6.448588753      2.781292675      1.520382348     -0.343347592     -0.075508923      0.437496788
Se      1.336850846     11.099855859      3.640460573     -0.261744899      0.132951944     -1.068905668
Se      8.123659130      3.960643608     11.267505021      0.262914063      0.721139074     -0.257083294
Ge      6.832918938     10.054812766      0.974275734     -1.551940128      0.994626890     -0.175806646
Se      1.723961606      6.591415642      3.595864556     -0.467451982     -0.657439796      0.251067498
Se      0.141696552      1.439184738     -0.015991342      0.196721510     -0.016152308      0.817163037
Ge      3.937888406      8.310025013      8.307829443      0.174811591      0.214765823     -0.388655795
Ge      5.784317850      0.327672750      6.374957265     -0.386543404     -1.161259273     -0.948808942
Ge      1.837501840      2.307298279      9.598846604     -0.648099677     -0.569906669     -0.053741682
Ge      2.149409020      1.329259056      1.729339827     -0.194107078     -0.713563896      0.164559111
Se      3.803418920      8.485818515      5.686549470      0.273719216     -0.413370869      0.340685770
Se      5.808338198      9.569651289     10.166629062     -0.419224909      0.190796495      0.673588997
Ge      3.775784964     11.036903458     -0.264194202      0.489230346      0.011937934      0.197838417
Se     -0.125893471      2.955687432      4.875089493      0.398313631     -0.663000608     -0.310747420
Ge      2.956178131      2.390202540      6.005064696     -0.880371504     -0.591351524      0.211906656
Se      2.175799567      5.395816409     11.345826176     -0.100154194      0.050169995     -0.393513482
Ge      3.829156873      5.351180977      4.479400429     -0.346528637     -0.063854411      0.327162852
Ge      0.505386346      0.711467150      6.207980317     -0.062579979      1.011409289     -0.491732551
Ge      7.388960616      1.789465090      9.738222625      0.083931721     -0.254966629     -0.146111854
Ge      6.358480444      3.578633431      5.079479088      0.605896036     -0.091738490      0.534837698
Ge      7.070688447      7.049493286      3.248052798     -0.361967719     -0.137376501      0.235392543
P       8.241846886      8.515227499      1.707431729      0.998429510     -0.062547246      1.856796843
Ge      1.038383333      4.606287841      2.035679541     -0.511619648     -0.313657501      0.344594259
Ge     10.785227559      4.356174367      6.803539097     -0.446256911     -0.058608672      0.389887088
Ge     10.948946515     10.656672377      1.766027386     -0.029437266      0.612345549      0.156376039
Ge     11.847537272      9.755108161      8.876976923      0.432129697     -0.035534338      0.278281284
Ge      9.027551833      0.972287446      5.900820997      0.023366616      0.806797276      0.375417051
Se      5.013737597      9.678508412      2.589167696     -0.161308049      0.334063205      0.185914755
Se      8.302056495      3.287025166      6.994489517     -0.007781276     -0.050354615     -0.345529018
Se      7.695016502     -0.123828773      7.731897084      0.520572063     -0.828247622      0.649798534
50
config_type=amor Lattice="   11.36344   0.00000   0.00000   0.00000  11.36344   0.00000   0.00000   0.00000  11.36344"   Properties=species:S:1:pos:R:3:forces:R:3 energy=-11031.9333 pbc="T T T"
Se      2.248545388      4.713482572      6.688375074      0.008933097      0.522874858     -0.265595920
Se      3.463543754      2.420968151      3.339775720     -0.414384255      0.389845516      0.018800123
Se      8.586498432      5.263568549      3.619277366     -0.015424383     -0.583211561      0.236613127
Se      0.607449680      8.729617859     -0.161709775      0.052506942     -0.203459163     -0.300390293
Se     12.701266428      7.994436470      7.802626759      0.295974238     -0.711817208      0.110582405
Se      4.824645870      2.071284624     -0.100752923      0.040608697     -0.316760476      0.093443446
Se      2.993373194     11.087471090      8.778644919      0.278598368      0.222548757      0.415954891
Se      4.705355226      2.498152798      6.933926795      0.017336370      0.301420392     -0.363263214
Se      5.324104042      6.109651322      1.795027509      0.582118308     -0.788581443      0.227667840
Ge      3.678885390      4.060511840      8.810492581     -0.002018946      0.640286455      0.399317070
Se      5.809096059      5.902494499      8.610045705     -0.395315369      0.411937430      0.376890091
Ge      0.170931491      6.466825415      9.774774754      0.668482003      0.832414621      0.071251121
Ge      6.699946329      6.314462248     11.011150214     -0.735484128      0.221849162     -0.617512948
Se     -0.108544247      2.514826887      8.656570250     -0.523993108      0.680940443      0.055636630
Ge      6.133928371      9.135414823      5.026348280      0.661667071      0.342083817     -0.220490108
Se      8.350559726      0.482372501      1.032667943     -0.766024207      0.508412182     -0.091491872
Se      7.571779352      1.572658185      4.643143244     -0.772017011      0.207700297      0.527754799
Ge      3.271671807      7.517360071      1.416841079     -0.773650360      0.449055906     -0.587532931
P       8.920602591      6.866428880      0.197327403      0.228874285      0.505694872     -0.159054642
Ge      9.698221521      4.828123097      1.257008504      0.352355254      0.613975891      0.802530931
Ge      6.838540909      2.635151491      1.605416850     -0.177383994     -0.350109070     -0.268165086
Se      0.908474379     10.531331212      3.133667409     -0.172637599      0.250575041     -0.023629440
Se      8.210029285      3.773592054     11.072452085     -0.734752229     -0.741645989     -0.176019144
Ge      7.116066147      9.805617875      1.359083354      0.156613528     -0.368852230     -0.735145755
Se      1.708120627      6.470822669      3.101618765      0.256655935     -0.514992417      0.385581786
Se      0.711190210      1.553074540      0.300594346      0.518065541      0.665225434      0.070415416
Ge      4.089734492      8.151251496      8.177752238     -0.140291416     -0.167453638      0.145015715
Ge      5.706957165      0.281281371      6.265056956      0.901318500      0.130649336     -0.284742723
Ge      2.132009507      2.059210865      9.600592646      0.361096942     -0.200626831      0.183581390
Ge      2.504931651      0.482678169      1.872230182     -0.043342670      0.068698483      0.228001299
Se      4.142291602      7.966602626      5.611010408     -0.720034627     -0.183854837      0.229066431
Se      6.017180033      8.999366494     10.497322182      0.363478240     -0.079926854      0.734596270
Ge      4.158346671     10.861126457     -0.057357404     -0.027272583      0.150009356     -0.182600123
Se     -0.436230658      3.165896577      4.795887433      0.391574675     -0.285491799     -0.185536089
Ge      2.069774186      2.438549816      5.441152806     -0.377655464     -0.363706687      0.254589605
Se      2.240420755      5.375803058     11.044003483     -0.312288056      0.106355455     -0.101728277
Ge      3.708619762      5.513810888      4.421225503     -0.483197798     -0.004650365      0.000061193
Ge     -0.011677455      0.909958050      6.904500630      0.787869134     -0.647238533     -0.585425294
Ge      6.279300777      2.571002579      9.017983629      0.394392472      0.365485278      0.345543559
Ge      6.442902740      4.062585857      5.495047676      0.528171149     -0.988620751     -0.383454107
Ge      7.034572569      7.159460969      3.464997036     -0.459164849     -0.782051841     -0.118199888
P       8.546126484      7.960060715      1.961147567      0.579407390      1.712662558     -0.230326332
Ge      1.028808353      3.991938699      1.671670188      0.361308499      0.454302137      0.325016979
Ge     10.880174126      4.832330810      6.603573653      0.123163954     -0.162500652      0.091484324
Ge     10.776890729     10.865177463      1.060255228      0.386147016     -1.070338895      0.421989738
Ge     12.089108876     10.105885310      9.000901503     -0.423971787     -0.504366399     -0.066348461
Ge      8.965529341      1.681486033      6.743097374     -1.294823217      0.185530595     -0.313744768
Se      5.205448489     10.114326171      2.827691494     -0.054976401     -0.265782275      0.099289439
Se      8.187900140      3.979639613      7.342378070      0.139845664     -0.060409222      0.198265706
Se      7.226259065      0.381430703      8.350133254      0.361344341     -0.514167608     -0.379917035
50
config_type=amor Lattice="   11.36344   0.00000   0.00000   0.00000  11.36344   0.00000   0.00000   0.00000  11.36344"   Properties=species:S:1:pos:R:3:forces:R:3 energy=-11031.6270 pbc="T T T"
Se      2.447187440      4.776335394      6.416369695     -0.959161026      0.517070939      0.930820413
Se      3.375955947      2.840771356      3.022718194     -0.305007413      0.294944270      0.198339394
Se      8.848590121      5.030446818      3.225998717     -0.964396681      0.331332640      0.298928570
Se      0.552918001      8.749619704      0.256030938      0.453550927     -0.539656468     -0.244124686
Se     12.882800518      7.797739763      7.919542390     -0.466193946      0.075660897      0.787592769
Se      4.686864060      1.803212658      0.353583803      0.127400916      0.047069466     -0.444801454
Se      2.728869976     11.187857102      8.805409317     -0.453683942     -0.470811886      0.092049122
Se      4.817942360      2.781385205      6.759758095      0.572723822     -0.109388351     -0.008144567
Se      5.527513968      5.818744382      1.425979599     -0.558329313      0.080806897     -0.575814778
Ge      3.895245400      3.390644641      9.962333790      0.097029874      0.032813353     -0.360055647
Se      6.185380305      5.999569129      8.685134299     -0.399866308      0.127574614      0.021891786
Ge      0.519521180      6.552615919     10.007022691     -0.389890718     -0.012055275      0.086485595
Ge      6.651677143      6.977353827     10.823685013     -0.850530516     -1.324845923      0.012114448
Se     -0.248072940      2.621182582      8.364653452      0.360135716      0.481768284     -0.177531481
Ge      6.230577536      8.491139866      5.084410816      0.772006073      0.672413595     -0.593134116
Se      8.082436747      0.837794981      1.367312469      0.200807882     -0.198170915     -0.628960817
Se      7.581749938      1.129817055      4.670031455      0.109553419     -0.054349154      0.343493837
Ge      2.851194634      7.594820216      1.128652061      0.092293673     -0.250153377      0.562695222
P       8.823916505      7.201537476      0.065208525      0.761402660      0.759435770     -0.773506316
Ge      9.866515144      5.337017989      1.000901250      0.415622664     -1.098929700     -0.453022815
Ge      6.936481025      3.289354445      1.690875288      0.484823881      0.251871654     -0.497688449
Se      0.402092251     10.685796400      3.424368352      0.215200582      0.348403874     -0.045277271
Se      8.643105867      3.547605273     11.016537344     -0.370953840      0.387416339      0.980208269
Ge      6.962668525     10.090961894      1.320993854      0.186743289     -0.691945855     -0.218669672