 500
config_type=amor Lattice="   24.73334   0.00000   0.00000   0.00000  24.73334   0.00000   0.00000   0.00000  24.73334"   Properties=species:S:1:pos:R:3:forces:R:3 energy= -111169.778 pbc="T T T"
Ge      6.996961555      5.029707531     24.354076583      0.155474468     -0.108329744     -0.003225831
Ge      7.924368281      0.340489942     10.191466934     -0.055143198     -0.198520800      0.105883930
Se      5.758225426      2.988071570      8.246382102      0.155844645      0.121986642     -0.287839295
Ge      6.041329243      8.917027478      3.608366677     -0.161436966      0.265985614     -0.047514901
Se      9.878498007      2.608678908     13.184618569     -0.128768819      0.039542868      0.076124318
Ge      7.756994701     24.716264923      8.102558959     -0.278056038      0.287746751      0.019672280
Se      7.119616740     12.741187217      2.062477804     -0.110577249     -0.220467026      0.215734045
Ge      8.676486002      2.518302946      3.369073911     -0.232101170     -0.028027710      0.045650794
Ge     11.135219864      2.030187467      6.548437453      0.837737680     -0.172436521     -0.166355036
Ge     11.394654392      0.512118560      2.967657723      0.124379574     -0.212349566      0.170797164
Se      1.726738467      1.627090027      8.908899568      0.204906358     -0.072872046     -0.307802428
Se      4.363520798     11.806032249     12.298992049      0.066592253      0.289121695      0.101560788
Se      4.867815443     11.326044944      7.606860932      0.028953153      0.187706334     -0.017728849
Se      4.345370484      3.368944898      4.444255267      0.262812665     -0.485447872     -0.239742687
Se      4.910083727      5.768042182      9.701225472      0.001467489      0.094950479     -0.051375322
Se      6.493053221     13.419687762      6.779638617      0.265152715     -0.096642718      0.001639357
Se      9.019184316      2.195756387      1.943146092     -0.178861741      0.134030625      0.085603502
Ge     11.940479422      7.905593067     24.666564032     -0.266064937     -0.177605782      0.007601855
Se      9.133185779      3.866549768      8.875063741      0.238843685     -0.127261669     -0.032522720
Ge     12.897506686      1.295302938      1.524071207      0.499025447     -0.356850921     -0.106888697
Ge      0.465843521      3.920532201      2.603133801      0.284415155     -0.038762852     -0.022884890
Se      8.866352548      7.954649567      6.789211166     -0.303069447     -0.107232433     -0.115336671
Se      9.404651117      7.461034989      8.714302746     -0.079680665      0.142650468      0.147965157
Se     11.605189399      3.181168851     13.525610592     -0.526484671      0.103477777      0.320203368
Se      9.784491295      1.577441248      3.984448931     -0.364479218     -0.036766539     -0.139464299
Se     13.205885097      6.718158752     12.249356779      0.507050362     -0.146048167     -0.035735330
Ge      6.588482508     11.866337727     11.805636293      0.025674440      0.057086629     -0.196590590
Se     11.848679311      5.896711749      3.028539531      0.225609846     -0.179945832     -0.069262818
Ge     10.401695975     12.604367038      6.331989551     -0.386372561     -0.107840581     -0.726195326
Ge      4.368121596      5.453150385      8.002058879      0.099379386      0.192492198      0.148811276
Se      5.232743680      5.312609852      5.154157993      0.292783806     -0.123982956      0.228029219
Ge      3.274020330      2.612179484      4.824440747     -0.577185741      0.004508231     -0.223084708
Ge      2.678151799      0.838479466      3.472635626      0.369767465     -0.438461796      0.239240303
Ge     11.102385347      5.755104845      1.880890754     -0.092874841      0.337350510     -0.126984036
Se      9.480596633      5.693034075      7.730560876      0.033144089     -0.023545921     -0.042015124
Ge      6.793216352     12.075005066      0.889284777      0.044170085      0.549647194     -0.509337529
Ge      5.044147270      4.483074421      9.994326588      0.146920728      0.083078364      0.305026099
Ge      2.249181978      0.869929079      6.118608356     -0.039146250     -0.534575689      0.023136082
Ge     10.150425392     12.232660024      2.126139368     -0.389320759      0.306268837      0.186000875
Se      5.306107344      4.923753990     24.687692253     -0.497637282     -0.058950736     -0.363897511
Ge      9.171624233      3.762095300     12.929691512     -0.041697829     -0.133739772      0.661387857
Ge      6.500528938      3.633905843     11.658959305      0.103834734      0.319211822      0.120598477
Ge      2.864591905      6.233696791     12.261088044      0.390351967      0.353982047      0.214742498
Se      4.306008005     10.721732208      3.464929385     -0.100357711      0.287006396     -0.239372510
Se      8.609393745      0.955802411      0.328699424      0.297397802     -0.062864039     -0.068443139
Ge      8.884621496      1.972933777     12.499518630      0.244145153     -0.064080335     -0.037176378
Se      9.658140337      0.406456305      2.341787384      0.111767105     -0.145902740      0.496064029
Ge      9.671799626      7.934267735      9.990632667     -0.383675555     -0.244012947     -0.011012775
Se      1.122591796      4.757865324     12.284929618      0.275530900     -0.175014541     -0.308185826
Ge      8.551716222      2.716371674      8.247525982      0.285261275     -0.161291540     -0.071589646
Ge      7.759834216      6.155269511      2.958053910     -0.101679773     -0.032509500      0.196934326
Se      9.915668657      1.451969089      8.539142554     -0.086634710     -0.572346995      0.021985888
Se      6.615803768      6.331974030     13.067598303     -0.102010289      0.128358980      0.191844388
Se      0.929101800      1.518451075     10.707287378     -0.534919425     -0.297186272      0.082919716
Ge      3.444783524      8.480118124     11.577788704      0.163697692      0.285472805     -0.142901660
Ge      7.292409755      9.812350845      5.901378613     -0.260419733      0.098705134      0.335671491
Ge      7.646927543      3.488290445      9.580960558     -0.029997582      0.094924037      0.155276158
Ge      8.755419138      5.815827241      0.553678485     -0.012136527      0.201416115     -0.504115385
Se     10.787320125      0.928802896      5.713492552     -0.095016582      0.043059553      0.274909531
Se      1.060724558      7.090715008      3.923958189      0.021787578     -0.168959498      0.362509346
Ge     11.637649488      5.615954301      7.810507683      0.066922768     -0.048532889     -0.058091396
Ge      9.672623145      4.200660867      4.989258524     -0.283569036      0.318246717     -0.009743595
Ge      7.498361196      2.138441965     11.077807383      0.113565109      0.402594259     -0.054376402
Ge      7.254359511      6.601371852     11.883256461     -0.033884444     -0.038749631      0.199274375
Se     13.015586238      6.009605618      5.332028195      0.335063343      0.014159282     -0.196630252
Ge      0.022839093      5.929601243      2.538280987     -0.406348915      0.257775610      0.000859340
Se      3.399755215      6.051468103      4.397211271     -0.086198429      0.160696612     -0.105606297
Ge     13.119559155     11.651836475      4.923682000      0.106809373     -0.044249408     -0.017874276
Ge     10.175426792      7.482307823      6.869779470     -0.235049367      0.078755221     -0.074339535
Ge      2.645717570      6.013218520      7.442090511      0.068971964     -0.065812236      0.117319764
Se      6.887815463      6.493393589      6.148185757      0.010814466      0.233013392      0.043046332
Ge      4.651008512      0.720152930      9.895014110     -0.170969032      0.302738932      0.177063737
Ge      0.852461698      0.759960751      7.572721655     -0.955784579      0.134956069     -0.040970695
Ge      8.244419115      0.210263707      6.444707556      0.073982578      0.309944168     -0.410500189
Se     12.227408708     12.514876307      2.583596202      0.012387719      0.229377722     -0.000594928
Ge     10.438946523      8.992653743      0.333787820      0.642204740      0.186701567     -0.189623324
Ge      3.805154367     12.308946447      5.140099922     -0.082655304      0.173785024     -0.486267551
Se      7.031536522      4.676313548      9.235446156      0.060418224     -0.235670737     -0.036184831
Ge      1.781205830      2.952781952      8.433599067      0.276826520     -0.269356871     -0.400875579
Ge      7.240110939      1.972280483      4.656945885     -0.048691536      0.015547447      0.237415858
Ge      4.406453829      1.677984748      1.758150509     -0.221802308     -0.059862958      0.099035649
Se      7.839787052     11.968641784     11.260018363     -0.101269934      0.120281183      0.276562108
Ge      5.690710720      6.378307048     10.601323660     -0.429445335     -0.013247059      0.074603947
Ge      4.797039973      1.379527189      4.354804018     -0.930586081     -2.314414608      0.738821017
Ge      2.761229976      6.360015158      3.170461047     -0.101534346     -0.252698893     -0.147766847
Ge      8.141695297      1.139629230      1.682458940      0.450466117      0.011092099      0.151204208
Ge      3.667512523      8.135055641     12.906954020     -0.526339244      0.138499194      0.541688381
Se     10.886137222      8.386117144     12.255856696      0.010642597      0.508504630      0.058038513
Se      1.394326419      6.617302804      8.121538153      0.232563891      0.016248140     -0.302461299
Ge     12.159229642      7.794324493      8.110923891     -0.354391886     -0.004732981      0.145717652
Ge      0.643940779      2.161175748      9.557248976     -0.102168936     -0.662260418      0.059373795
Ge      5.613559223      8.771629367      5.587390220     -0.055381169     -0.279047584      0.148639408
Se      6.660148279      6.829471611      9.735824708      0.088525258     -0.202222573      0.017808172
Se     11.217326124     12.391795366      7.367476360      0.009294094     -0.412800577      0.603600536
Se     12.688909806     12.525779200      9.091113467      0.112811533      0.018416321     -0.475519188
Ge      9.268287857     12.797237067     12.248737884      0.041327652      0.128279656     -0.640314192
Ge      7.592014294      5.210203837     10.325506218      0.409773055      0.042451404     -0.098480384
Ge     11.650039124      0.280848240      4.809602295     -0.014542680     -0.153398831     -0.105817827
Ge      5.376564316      1.548445234     11.638157374      0.025172057      0.424963545      0.073572739
Se     24.602087273      3.790340683      5.261663057     -0.296961522      0.277910611     -0.290192565
Ge      2.389981310     11.963063771     11.540166998      0.161463408      0.420957698      0.061608080
Ge      0.341975600     11.936866392      2.851849859     -0.831761961      0.331242584     -0.154509363
Se      3.377702386      6.158993340      8.600945198     -0.085497737     -0.186648685      0.132153298
Ge      4.360500693      2.923648991      7.714018398     -0.094421654     -0.356467523     -0.039423883
Ge      2.167215013      6.620635031      9.306156744      0.182708941     -0.037030951      0.183026236
Ge      5.188644342      0.599560618      6.377910457      0.237600947     -0.456402175      0.018442762
Ge      6.805164735      2.568413291      2.893787950     -0.050595305     -0.178253593      0.076177201
Se      0.484571983      5.037238902      3.504950206     -0.131743458      0.281004236      0.405555678
Se      1.433868366      2.734990555     12.243213886     -0.288169811      0.129919013      0.319978618
Ge     12.710419998      2.426408032      0.066665340     -0.071629308     -0.693117340     -0.618539834
Ge      5.140889680      5.709026508      2.424702232     -0.353043383     -0.257114579     -0.294991650
Se      1.033397380      7.767268925      9.617898747     -0.189425015     -0.270824360     -0.236953136
Ge     12.031572643      2.726942139      5.073581957      0.227870572      0.278743510      0.227685483
Ge      1.041832147     12.858555770     13.174024875      0.027327017      0.666623222     -0.034135636
Se     12.946077781      5.434241812      7.457959247      0.180963819      0.098440722      0.289822388
Se      5.078950068      1.462020976      0.582464599      0.082734627     -0.183065898      0.112652886
Se     12.925223818     10.932916769     12.833544803      0.021417401     -0.273878323      0.115244127
Se      2.450875154      0.151742318     10.208571452     -0.571104257     -0.101349258      0.030989129
Se      7.595081222      1.577586030      3.331920637      0.408490655      0.351470130      0.126217240
Ge     10.042680451      4.468584722      7.264775257     -0.183409634      0.408741847     -0.090878528
Ge     11.007744207      2.259658416      3.749558673      0.242664443     -0.226217995     -0.228782795
Se      2.564987828      9.008531816     10.235653569      0.103147262      0.294132309     -0.367559622
Ge      0.423792686      5.797690725      8.699451248     -0.735833157     -0.083950924     -0.031134555
Se      0.650920275      9.026833723      4.391701929     -0.297688656     -0.396327687     -0.199393361
Se      6.582518399      2.989439021     10.423045007      0.148546864     -0.514004407     -0.338381718
Ge      0.797270883      1.141148874      4.328887594      0.064186100     -0.237164666      0.145770534
Se      6.738162063      0.427444435      8.815055051      0.132920093     -0.536294369     -0.557063960
Se      5.685860992      4.661998029     11.174112522     -0.091539559      0.161648496     -0.128808481
Se     10.707646442      5.107824755      4.735512938      0.151019119      0.034082753      0.025132395
Se      5.364841795      1.025005661      2.698555433     -0.076375510     -0.343683186      0.442784938
Ge     11.953513827      3.340150863      2.278228093      0.353677973     -0.287138602     -0.152182534
Se      3.715943366      5.865248824      2.267114355      0.201283909      0.199485905      0.075423626
Se     12.595905156      0.658010962      7.402601244      0.358305189     -0.266752409     -0.193192891
Ge     12.435788581      0.367782449     12.509867082      0.659814603      0.801288437     -0.124948061
Se     10.070972215      6.006033581      0.212964706     -0.263010975     -0.068033300     -0.763675778
Se      3.822163844     12.230437271      9.045812539      0.041116122      0.198639786      0.125675195
Ge      6.052495256     12.602487943      4.935999166     -0.286993176      0.436795998     -0.151680150
Ge      3.709032947      4.411550784      6.050509468     -0.051970249      0.487087229      0.236358209
Ge      6.230452693      7.921728125      9.045496399     -0.123044292      0.110987088     -0.022210638
Se     24.105520149      2.199509022      6.276324478     -0.933560720      0.210710210      0.183832693
Ge      3.777536381      6.547407343     10.601034967     -0.233872732     -0.100846874      0.212719744
Se      2.697679457      8.039833614      5.293352052     -0.272886776     -0.134162832     -0.162309527
Ge     10.000183452      3.341545878      1.762475059      0.015983727      0.172595168     -0.017279348
Ge      1.164233132     24.487318276     10.044737026     -0.043667701     -0.208105748      0.013299942
Ge      0.708266558      7.144933968      2.361955176      0.163843119      0.162454954     -0.191117254
Se     11.024404664      4.229572415      9.613989020      0.167373024     -0.167068950     -0.293748911
Se     24.606186435      5.396389503     10.709066342      0.490670017      0.353651532      0.164887548
Se     12.354131656      4.909146417     12.694165957      0.153795449      0.218325286      0.023955760
Se     12.752796975      3.442500488     11.281689729      0.394794095      0.519358758     -0.435460716
Se      7.822422435      3.571557903      2.786417893      0.035008196     -0.115878717     -0.010669039
Se      0.627186948      0.740501264     12.323348811     -0.506191022      0.266289688      0.440762184
Ge      2.138515553     10.092907224     10.985171094      0.107047344     -0.257365771     -0.082060376
Se      7.666237015      7.496929510      2.609499857      0.182484190     -0.318603673      0.022977434
Ge      8.870820455      4.524836825      2.913824397     -0.329471021      0.317969084     -0.307868531
Ge     10.270337093      9.984839771      5.850855683     -0.098149868      0.084519411     -0.176878648
Ge     11.172939785      4.476460490     13.247606402      0.012797558     -0.452885490     -0.063657276
Ge      2.524806619      1.529918462     10.064487038     -0.008725608     -0.299830396     -0.011449055
Ge     13.020444597      3.024766300      8.372695224     -0.076296187     -0.439664872     -0.686824326
Se      5.960131541      0.867820420      4.729458764      0.062097243      0.022210638     -0.015296255
Ge      6.303420669      6.004550966      8.540646463      0.081809184      0.195268528      0.070267585
Ge      4.615383620      5.678500843      3.952594995     -0.256546092     -0.037652320      0.095095905
Ge      8.799534049     11.974267461      4.594195122      0.064807469     -0.001520371     -0.278968261
Ge      7.324894215      1.306181978     13.081439352      0.023334391     -0.228042440      0.412998886
Ge     12.533555782      4.868602109      4.510903038      0.214081467     -0.394040520     -0.188327703
Ge     11.791256491      4.394921185      8.579437397      0.186450376     -0.438435355      0.160260331
Ge     11.821487300      4.882440695     11.415171277      0.286887411     -0.474078141     -0.493195155
Ge      4.611653865     12.980982219      2.932419960      0.046761326     -0.092187369     -0.084056689
Ge     11.921088217      7.678799262      5.615659700     -0.057707998     -0.055764567      0.132536695
Se      1.257760325      1.272193508      3.061137255     -0.191434549      0.157431119     -0.079733547
Se      8.676116375      0.671417022      5.271917802     -0.126627079     -0.018455983      0.133448918
Se      0.110842314     11.667193970      7.418988381     -0.226588172      0.415484362      0.634497120
Ge     11.930755558      0.467470620      8.576756190      0.744294352      0.190416561     -0.319238263
Ge      8.134805320      7.056356754      9.263240492      0.070188261     -0.053781474     -0.130262749
Ge      5.654127050     11.617170443      8.672182084     -0.042795140      0.001626136      0.158911828
Ge      4.333631509      0.791359692     12.322106965      0.651683923      0.211291917      0.104350338
Se      7.025072536      1.809804794      1.235954243      0.261834340     -0.076309407     -0.224710844
Se      8.038122841      1.709329692      9.874938198     -0.098506825      0.131016324     -0.097885456
Ge      8.806134071      9.616376934      8.578860871     -0.335420299     -0.105579855     -0.229734679
Ge      2.826278292      0.135838950      8.908770408      0.273746116      0.117518073      0.007853047
Se     10.547708928      0.278084731     12.313251282      0.049511214     -0.296578124      0.099326503
Se     11.295955864      6.171514357     11.672070553      0.071893721     -0.068654669      0.086158768
Se      4.302355451      3.240948467      0.574007635     -0.110973868     -0.305435938     -0.153160860
Se     12.480945313      6.707565256      8.909229745      0.484892607     -0.390232982      0.101322816
Ge      0.139720659      3.841838369     12.489539772     -0.402224082      0.015349138     -0.050357334
Ge      6.093202583      0.694170113      1.234167878      0.242585120     -0.169012381     -0.335856580
Ge      9.890089503      6.217315136      8.912906295      0.033210192     -0.297318478      0.143774221
Ge      7.327248426      7.581698791      7.468585396      0.069474348     -0.060272797      0.184758137
Se      8.130147487      1.337507449      7.331831310     -0.016499331     -0.125238914     -0.078160294
Se      0.626318750     13.292655841      1.345169399     -0.581958384      0.223587092      0.212402449
Ge      6.381139724      0.290926172      3.331818363      0.132708564     -0.689653538     -0.186238846
Ge     10.955350506      2.886811308     12.361208862      0.095016582      0.031636939     -0.032324411
Ge      0.251927566      2.140665210     11.784036251     -0.252170068      0.217029665      0.140773141
Se      6.552204830      1.101120545     11.069670506     -0.056042200     -0.022025550     -0.395058507
Se      1.499575309     11.990471596      8.986183899      0.213565863      0.261173309      0.336398625
Ge      0.608753403     24.248280545      8.202399857     -0.847296187     -0.574726706     -0.378889691
Se      8.706575375      4.892918019      4.253656162      0.166672331      0.067200401      0.154654789
Se     10.759807944     12.799638427      3.926161291     -0.039185912      0.720431137      0.162732587
Ge      9.898842007      6.127770259      4.178648262     -0.320309133      0.003913303     -0.014132841
Se      4.824387699      7.725726896      6.052715146     -0.079138619      0.110312837      0.237733153
Ge      7.298347826     11.646408445     10.063566628     -0.192452536      0.198917418     -0.198520800
Se      2.383843165      3.451871762      9.552800628      0.273323057      0.233991718      0.206770466
Ge      7.640999465      3.980780094      4.279641060      0.251019874     -0.095796598     -0.011250746
Se      7.683568444      3.511250498      7.488314464      0.010827686      0.079297267      0.154244950
Ge      2.288817288      1.464216589     12.604867933      0.051639734     -0.123507013      0.385856957
Ge      4.537234538      4.625291702     11.943529276      0.006927604      0.045188072      0.150596060
Se     11.204658883      4.959063956      6.698370028      0.189729089      0.017041377      0.256109812
Ge      1.182937166      6.024797890      4.782878593     -0.759326195      0.532552934      0.177103399
Ge      5.469558361      7.398937001     11.862466768      0.094500977     -0.202592750      0.231030300
Ge      5.586917251      2.756871840      0.481844253      0.284719229      0.002657344      0.028622638
Ge     13.071275291      7.828238116      4.296670906      0.509284647      0.388382095     -0.449646439
Se      5.547060597      2.771144299     12.162604483      0.380158871      0.056385936      0.493591773
Se      0.410053390     24.538435345      4.192288456      0.300914486     -0.068615007      0.182933691
Ge      1.291839705      5.310990836      1.156080238      0.189054837      0.105910371      0.358159762
Se     11.998709910      1.279914849      3.927310597     -0.167320141      0.142584365      0.037639099
Se      2.761244314      2.786760196      7.488545933      0.159586080      0.251918876      0.092821959
Se      5.216205235      4.451774452      1.918372655      0.065838678      0.097634264      0.047329812
Ge      9.573333281     12.305185901     10.495194084      0.020412634      0.919520423     -0.003397699
Se      4.192908937      0.161206565     11.048141859      0.196656693     -0.336120992      0.443049351
Ge      0.585978736      8.462798580      0.854924916     -0.585673378     -0.174432834     -0.091724648
Se     24.723812958      5.158604797      1.502842613     -0.312958469      0.092610429      0.266276467
Se      8.014051303      2.933962339     12.855940255     -0.154073082     -0.005275027      0.232815083
Ge      5.049187806      2.770832724      5.486281884      0.062692171      0.068390257     -0.311874379
Ge      0.822066211      6.616345264      0.367917102     -0.664547585      0.466780360     -0.130368514
Se      8.636191306     12.944972770      9.104539327     -0.515445455     -0.154496142     -0.356361758
Se      6.861442997      5.886750563      2.027717128     -0.130540382      0.037850629      0.122303937
Ge      5.034721288      2.534508758      3.594154475      0.161846806      0.959248381     -0.194157996
Ge      3.915191071      7.416949465      4.303565302      0.109413835      0.161622055     -0.423125879
Se      2.815877081      3.960477367     24.407826930     -0.102102833     -0.820445112     -0.402197641
Se      2.562632439      2.090149528      0.698367976     -0.657382010     -0.193206112     -0.250729020
Se      1.530241760      7.765166346      0.088953101     -0.137666295     -0.036660774     -0.067967197
Se      4.991917721      8.083982017     12.981121192      0.238605714     -0.094910817     -0.145334254
Se      9.373231023      2.848374067      7.176304656      0.060365342     -0.213420436      0.035986522
Se      4.792041050      0.435594816      7.724819539     -0.257973919     -0.188063291      0.293034998
Ge      7.122098707      7.137590764      1.070023774     -0.221643661      0.054072328     -0.144342707
Se      2.795081557      7.257319503     11.390180681     -0.375082153      0.398165352      0.105275781
Ge      6.123797314      1.762478219      9.929449531     -0.234613087      0.098533266      0.333754502
Se     11.916681713     11.952704592     11.327977906     -0.140046007      0.286451130     -0.532169537
Se      3.509308638      1.768979346     11.992886046      0.113049505      0.383543349      0.355066138
Ge      2.792373771      4.809449377      9.271452133     -0.038273689      0.074551065     -0.061026373
Se     12.579587742      1.401710292      9.390480829      0.086066223     -0.026811413     -0.220837203
Se      3.992998041     13.474062729      4.057791907      1.313005677      1.256632962      0.312059467
Se      8.519989526      7.470510768     10.549338122      0.064318307     -0.041830035      0.093112813
Ge      1.844912413     11.982833161      2.741206351      0.026414795      0.398892486      0.164636356
Ge      1.609948504      3.053271730      0.504490568     -0.058911074     -0.171378871     -0.467481053
Ge      3.871316662      3.254960336     12.349701322      0.423866234      0.040759165      0.503163501
Se      8.402460794      7.171047887      0.653985307     -0.232735759      0.000528825      0.178055283
Se     10.765336422      7.184601400      4.249226292     -0.113974948      0.288896945      0.603547653
Ge      8.014352356      3.286175003      1.164640073      0.295110635      0.030883364     -0.359931325
Se      8.737145790      5.711931790      9.627767369      0.015388799     -0.010867348     -0.046285384
Se      7.052945502      4.243473827      0.744832880     -0.436293615      0.025423248      0.148282452
Ge     12.296763506     11.366717435      8.443188800      0.437509912      0.001916990      0.160947804
Se      4.922642961      9.094713023      7.562965084     -0.145413577      0.173533832     -0.110326057
Ge      0.225019898      9.188042498      9.301635995     -0.346618163     -0.369595597     -0.233687644
Se      4.064167638      4.102281029      8.369336128     -0.060775181     -0.000277633      0.069632995
Se     10.028434275      6.008509436      2.724745784     -0.002075637      0.373826195      0.130765133
Se      4.871707775      1.958317359     10.471537016      0.276191931      0.005526218     -0.414254845
Se      3.768257325      4.271972393     10.362901547     -0.105513752      0.158118591      0.043548716
Ge      2.229811952      0.905757625      1.329290602      0.261041102     -0.418921723      0.020782812
Ge      0.875201769      3.030493358      5.925712745     -0.281070339      0.385883398      0.174723688
Ge     24.452440656      9.779142150      5.108737808     -0.270057564      0.114569876      0.000885781
Ge      2.702596450      3.938610288      6.891856189      0.660713605     -0.612286482     -0.635290357
Se      3.337470064      6.917024609      0.327383511      0.041261549      0.045968089     -0.217161871
Se      8.196627690      5.705830937     12.347775653     -0.279338438      0.050410216      0.373720430
Se      3.592808112      1.240478725      9.214308887      0.034333945     -0.176164735     -0.104813060
Ge      9.626127393      1.527119469      7.220375576     -0.177737988      0.227381409      0.356110567
Ge      6.359591327      3.463757111      7.062810632     -0.019011249     -0.072435766      0.237971124
Ge      4.780558442      9.227484824      8.923169699      0.111079632      0.181082805     -0.001493930
Ge      2.019509892      3.886486139     11.686225760      0.281268648     -0.558478566      0.532539714
Se     11.097446512      4.373256505      1.835387317     -0.236781268     -0.065415618      0.036092287
Se      7.067907873      4.620836828      5.477915010     -0.417599661      0.024973747     -0.112190164
Ge     10.133131944      1.502532038      1.585938225     -0.030711496     -0.096523732      0.104508985
Ge     12.032116151      6.320394985     12.812606874     -0.014648445     -0.166487243      0.210948181
Se     12.046682427      1.179526487     11.462649840      0.489440499     -0.306824103     -0.047845417
Se      4.134123687      5.960347535     11.808429284      0.089754776     -0.042504287     -0.077882661
Ge     10.967661872      7.045499787      2.938563363     -0.013881649      0.128914246     -0.362178830
Ge     12.841333573      7.377309637     10.022022645      0.134850304      0.014701327     -0.495469101
Se     13.000510546      7.244561481      1.135635602      0.863795519     -0.030883364     -0.151799136
Se      2.056810879      0.669945220      4.746064272     -0.286239600     -0.575414178      0.230871652
Se      7.467162795      8.289161412      8.643264133     -0.233000172      0.095056243      0.054389622
Se      5.951178345     11.649597599     10.581942351      0.087771683      0.198864536      0.336094551
Se      5.987990356      7.241701580      7.821874406     -0.006649971     -0.000396619     -0.181294335