    50
config_type=liqu Lattice="   11.36344   0.00000   0.00000   0.00000  11.36344   0.00000   0.00000   0.00000  11.36344"    Properties=species:S:1:pos:R:3:forces:R:3 energy=-11034.7736 pbc="T T T"
Se    2.99700   2.90199   5.52929   0.01896   0.60853  -0.19000
Se    3.42300   8.99771   2.35228   0.01873   0.73405  -0.29000
Se    8.41900   5.21153   5.28941   0.04673   0.44464  -0.04000
Se    1.00600   5.08210   9.11436   0.07500   0.01166  -0.34000
Se   10.71600   1.81795   6.71865   0.04938   0.22649   0.61000
Se    4.48600   0.55563   2.83842   0.83911   0.27077   0.07000
Se    1.04200   9.34187  10.63983   0.06538   0.01591  -0.22000
Se    4.97200   9.66009   2.41266   0.02157   0.48521  -0.44000
Se    5.85500   6.86911   5.71132   0.00801   0.33411  -0.28000
Ge    4.20000   8.49944   4.71566   0.08278   0.95985   0.24000
Se    6.41000   2.97421   5.94427   0.08608   0.44940  -0.48000
Ge    1.26500   5.30469   4.44032   0.09040   0.17433  -0.17000
Ge    7.14900   1.93622   6.31656   0.43510   0.67458   0.00000
Se    1.39400   9.96006   3.12995   0.07039   0.04417  -0.02000
Ge    6.43800   6.29953   9.47955   0.06785   0.01628  -0.21000
Se    7.88800   8.90528   0.78595   0.01030   0.17030  -0.00000
Se    7.34900   0.22429   1.98869   0.03834   0.47710   0.15000
Ge    3.83200   3.41823   7.05617   0.05901   0.26586  -0.36000
P     9.19400   9.64118   7.31313   0.03670   0.04242   0.03000
Ge    9.88700   9.43761   5.12713   0.06501   0.08672   0.20000
Ge    6.57600   2.73197   2.63337   0.01431   0.44247   0.19000
Se    0.36600   5.12193  10.76966   0.08883   0.76053   0.22000
Se    8.21200   8.61991   3.83229   0.73511   0.14432   0.16000
Ge    7.06100   0.80314  10.04587   0.05150   0.89722   0.10000
Se    2.39400   9.68044   6.58786   0.07943   0.12837  -0.41000
Se    0.80500   1.05862   1.43747   0.07420   0.69118  -0.23000
Ge    1.21300   9.99557   7.48833   0.01036   0.90796  -0.16000
Ge    5.99400   6.87132   0.49877   0.09086   0.03824   0.08000
Ge    1.93500   7.94676   0.74825   0.09819   0.80349   0.26000
Ge    2.34700   5.12958   0.21510   0.08212   0.32837   0.04000
Se    4.18700   9.62273   9.02134   0.09945   0.90978   0.03000
Se    5.85700   7.48486   8.79097   0.79910   0.63902   0.03000
Ge    3.75600   7.70244   9.59840   0.06500   0.77479  -0.14000
Se   11.03100   9.22123   3.23142   0.05534   0.00608   0.32000
Ge    2.59500   8.72783   2.83744   0.04506   0.64179  -0.30000
Se    2.89000   1.24575   6.24911   0.18310   0.56619  -0.70000
Ge    4.39800   4.90274   6.85067   0.09254   0.77030   0.06000
Ge    0.32000   1.10115   1.27087   0.02395   0.68431  -0.05000
Ge    4.67800   1.58712   0.96085   0.01889   0.73222   0.25000
Ge    6.99000   9.83714   4.30947   0.08005   0.49622  -0.31000
Ge    6.86000   3.80085   7.33730   0.00203   0.08884   0.59000
P     8.64100   6.59750   8.50518   0.09271   0.75963   0.00000
Ge    1.82500   0.00958   3.89672   0.08982   0.84773  -0.03000
Ge   10.31000   6.15953   5.27237   0.03225   0.43079   0.25000
Ge   10.70200   6.70712  10.57404   0.09891   0.34756  -0.04000
Ge   10.72400   2.08658   9.17687   0.08709   0.30108  -0.07000
Ge    9.04800   2.78262   1.63310   0.06846   0.30930   0.38000
Se    5.39300   9.34216  10.21827   0.09942   0.73084   0.36000
Se    8.90100   5.01173   4.10425   0.02277   0.16408   0.22000
Se    7.65000   7.28996   0.49307   0.04927   0.88059   0.42000
    50
config_type=liqu Lattice="   11.36344   0.00000   0.00000   0.00000  11.36344   0.00000   0.00000   0.00000  11.36344"    Properties=species:S:1:pos:R:3:forces:R:3 energy=-11033.4370 pbc="T T T"
Se    3.02900   7.02342   5.72819   0.02236   0.77505  -0.18000
Se    3.21700   6.65443   2.56340   0.09543   0.62158   0.00000
Se    8.51600   2.24677   5.09896   0.09293   0.54529  -0.38000
Se    1.23700   6.23269   8.73889   0.08690   0.54680  -0.59000
Se   10.73700   7.37909   6.70745   0.09979   0.11767   0.33000
Se    4.80100   3.17988   2.71868   0.81810   0.83003  -0.14000
Se    0.97700   5.56353   9.99626   0.08288   0.34683   0.02000
Se    4.49100   5.00873   2.02274   0.01027   0.55153   0.90000
Se    5.75200   8.89704   5.85930   0.07951   0.39893   0.35000
Ge    4.65400   4.77385   4.91259   0.04188   0.63200  -0.31000
Se    6.59500   4.15631   6.36665   0.06798   0.30126   0.03000
Ge    1.44200   1.78987   4.39423   0.55510   0.67591  -0.68000
Ge    7.26000   6.72711   6.47892   0.65910   0.82654  -0.03000
Se    1.09500   8.95771   2.77821   0.06628   0.84420   0.26000
Ge    6.37600   4.66849   9.56809   0.07434   0.69469  -0.12000
Se    8.06700   0.90693   0.54663   0.06360   0.21656   0.34000
Se    7.25600   3.40044   1.76919   0.08114   0.38046  -0.07000
Ge    3.61500   2.62280   7.26824   0.01941   0.27705   0.24000
P     9.43000   7.53520   7.11163   0.04470   0.42643  -0.29000
Ge   10.21400   4.59230   4.76471   0.00951   0.18528  -0.40000
Ge    6.68200   5.55769   2.48317   0.00581   0.17683   0.30000
Se    0.15200   2.20424  11.35749   0.04033   0.65245   0.11000
Se    8.43100   3.55282   3.91591   0.89111   0.06531  -0.33000
Ge    7.26800   3.48627   9.80533   0.09361   0.05507  -0.01000
Se    2.23400   0.27843   6.33481   0.06373   0.04780  -0.03000
Se    0.57500   0.00376   1.53836   0.08460   0.62959   0.40000
Ge    0.48700   5.97934   7.76454   0.09417   0.12778   0.30000
Ge    6.14800   4.58563   0.32050   0.07976   0.37357  -0.32000
Ge    2.05800   4.91411   0.76554   0.34010   0.03821  -0.07000
Ge    2.25200   4.95701   0.47614   0.00162   0.29083   0.04000
Se    4.14700   2.41226   9.20108   0.07295   0.46384  -0.43000
Se    6.32200   2.98002   8.87613   0.98410   0.47840  -0.25000
Ge    3.68500   3.63804  10.00918   0.03450   0.45769   0.13000
Se    0.05300   5.16077   3.88715   0.09534   0.82547   0.15000
Ge    2.32200   5.76324   3.05473   0.07796   0.29782   0.09000
Se    3.05600   8.53198   6.23745   0.84310   0.36571   0.21000
Ge    4.27400   4.66864   6.71846   0.02804   0.78382   0.01000
Ge    0.17600   0.84812   1.23232   0.01265   0.74983   0.10000
Ge    5.27300   3.40193   0.63722   0.08219   0.70573   0.19000
Ge    6.59700   9.25020   4.03329   0.07905   0.13560   0.09000
Ge    7.06800   1.01856   7.19872   0.04103   0.32132  -0.23000
P     8.83100   9.35047   8.32256   0.09272   0.09216  -0.15000
Ge    1.37200   5.24112   3.91566   0.05632   0.59431   0.30000
Ge    9.88900   4.35381   5.71048   0.07155   0.66625  -0.11000
Ge   10.78000   5.63728  10.60587   0.00601   0.02113  -0.30000
Ge   10.74800   5.79911   9.03560   0.60010   0.09224   0.11000
Ge    8.96500   6.30065   1.54130   0.00696   0.25513   0.06000
Se    5.44400   5.08707  10.63776   0.08742   0.46576   0.09000
Se    8.44700   9.49984   3.98188   0.02596   0.88985   0.26000
Se    7.94400   3.66674   0.28423   0.03498   0.12477  -0.01000
    50
config_type=liqu Lattice="   11.36344   0.00000   0.00000   0.00000  11.36344   0.00000   0.00000   0.00000  11.36344"    Properties=species:S:1:pos:R:3:forces:R:3 energy=-11034.1790 pbc="T T T"
Se    2.75700   4.59910   4.83670   0.09896   0.94491   0.10000
Se    3.16000   0.86773   2.25979   0.09053   0.24874  -0.32000
Se    8.11900   6.06582   5.23278   0.02563   0.64207   0.46000
Se    1.10500   0.86197   9.01793   0.57710   0.51815  -0.00000
Se    1.03600   4.88476   7.42546   0.05147   0.39245  -0.00000
Se    4.68000   5.57964   2.20962   0.40811   0.32201   0.20000
Se    2.55900   9.71474  10.69736   0.00717   0.48184  -0.30000
Se    4.95700   6.85957   2.01853   0.00957   0.52557   0.21000
Se    5.44000   3.85208   5.69541   0.07741   0.60141  -0.27000
Ge    3.89500   2.03177   4.04358   0.06939   0.49533  -0.44000
Se    5.61800   8.32084   5.75524   0.01588   0.96361   0.19000
Ge    0.35500   7.62354   6.71801   0.06669   0.92589  -0.27000
Ge    6.92100   3.84509   6.00304   0.09410   0.99860   0.43000
Se    0.70300   6.57088   2.59639   0.00898   0.12636  -0.38000
Ge    6.21600   4.00384   9.21987   0.01975   0.07669   0.79000
Se    8.08400   5.73298   1.15681   0.09491   0.07664  -0.23000
Se    7.07300   8.04595   2.01876   0.03764   0.71547   0.68000
Ge    3.06100   0.50228   6.85813   0.00891   0.43830   0.54000
P     8.87200   4.19017   7.42612   0.09330   0.13238  -0.71000
Ge    9.82300   2.33338   5.53760   0.03401   0.41417  -0.32000
Ge    5.58400   9.83658   2.42405   0.09522   0.23791  -0.01000
Se   11.33100   9.74145  10.78856   0.00422   0.88198  -0.39000
Se    8.43100   5.13008   4.12242   0.34811   0.05824   0.31000
Ge    6.94200   8.08178  10.34339   0.04821   0.30536   0.30000
Se    2.15900   7.31949   6.39191   0.08293   0.72755  -0.23000
Se    1.00100   8.89791   1.63439   0.02070   0.27708  -0.36000
Ge    3.20500   3.47118   8.44908   0.05218   0.56230  -0.23000
Ge    6.40000   3.28788   0.12475   0.03896   0.42086  -0.24000
Ge    2.36000   9.32734   1.25075   0.05619   0.20296   0.48000
Ge    2.16000   6.50639   0.13911   0.06551   0.96148   0.23000
Se    4.46900   7.81747   8.16651   0.06466   0.20815  -0.49000
Se    5.72100   2.92052   9.98755   0.58510   0.56223   0.20000
Ge    3.61600   9.84113   9.62074   0.07950   0.84311   0.22000
Se   11.24000   1.68533   3.44629   0.04244   0.47361  -0.12000
Ge    2.34500   3.65192   2.30750   0.06566   0.10391   0.27000
Se    2.15500   6.42410   5.25289   0.81611   0.24874  -0.22000
Ge    4.20800   9.01496   5.65941   0.06615   0.13769   0.31000
Ge    0.11700   7.33142   0.94888   0.04574   0.89362   0.04000
Ge    6.91900   8.90300   1.59495   0.88510   0.02825  -0.23000
Ge    6.35000   4.74460   3.96525   0.01416   0.39507  -0.13000
Ge    6.60200   1.81393   7.31630   0.03773   0.20845   0.82000
P     8.42600   3.80779   8.54340   0.00391   0.93814  -0.65000
Ge    1.24200   8.95258   3.98644   0.06412   0.49961   0.49000
Ge    9.97500   9.65076   5.39318   0.05635   0.67893  -0.28000
Ge   10.71600   4.88044  11.05467   0.02780   0.36004  -0.33000
Ge    0.22100   7.46777   9.92971   0.09418   0.06393   0.35000
Ge    9.26600   2.08186   1.81043   0.07656   0.10918  -0.50000
Se    5.04100   4.92087  10.30634   0.03102   0.96742   0.34000
Se    8.77500   1.55633   3.95485   0.05347   0.44644   0.06000
Se    8.46100   5.45896   0.12125   0.05907   0.76109  -0.05000
    50
config_type=liqu Lattice="   11.36344   0.00000   0.00000   0.00000  11.36344   0.00000   0.00000   0.00000  11.36344"    Properties=species:S:1:pos:R:3:forces:R:3 energy=-11033.7964 pbc="T T T"
Se    2.42600   1.43576   4.48604   0.07846   0.68323  -0.17000
Se    3.31800   8.49561   2.70323   0.06673   0.34141   0.11000
Se    8.56500   9.17829   5.73318   0.01583   0.59003  -0.15000
Se    0.46600   1.02177   8.41659   0.00870   0.37678   0.16000
Se    0.64400   0.54808   7.10561   0.04058   0.02992   0.79000
Se    5.34700   5.18829   2.61202   0.24811   0.24297  -0.63000
Se    1.95200   6.24650  10.49121   0.05438   0.70306  -0.38000
Se    4.97800   0.72928   2.28044   0.03897   0.14785   0.81000
Se    5.45400   0.20503   5.87113   0.07711   0.32319   0.19000
Ge    4.26100   3.18241   3.83140   0.06779   0.26807  -0.62000
Se    5.62300   2.30415   5.88464   0.06498   0.77761   0.46000
Ge    0.38200   7.77130   5.99563   0.09610   0.40492  -0.55000
Ge    7.07300   9.48535   5.85852   0.76610   0.68839  -0.66000
Se    0.25500   0.43226   2.51237   0.04588   0.27758  -0.08000
Ge    5.97700   0.79337   8.82698   0.09274   0.89763  -0.21000
Se    8.06300   7.52030   0.91873   0.08500   0.86018   0.84000
Se    7.63100   4.33260   1.83544   0.02584   0.85771  -0.16000
Ge    2.77900   6.91545   7.24913   0.04021   0.37909  -0.43000
P     8.64800   9.98809   7.55070   0.73711   0.20397   0.30000
Ge    9.80900   4.42270   5.94146   0.03361   0.30667   0.63000
Ge    6.89200   4.53938   3.33458   0.05041   0.71245   0.45000
Se    0.75500   7.60131  11.13820   0.03393   0.10659   0.66000
Se    8.71000   2.20554   4.10511   0.33911   0.07215  -0.46000
Ge    6.67000   5.07065  10.42955   0.01211   0.04974  -0.48000
Se    1.22600   5.60354   6.37933   0.01123   0.63850   0.75000
Se    1.07500   8.75346   1.84312   0.03000   0.19111  -0.49000
Ge    3.12200   6.80303   8.20898   0.05178   0.45825  -0.21000
Ge    6.45700   4.44942   0.13177   0.05776   0.14324  -1.21000
Ge    2.31600   8.78917   1.61854   0.00449   0.32916  -0.09000
Ge    2.73200   1.55374   0.90104   0.07501   0.85871  -0.82000
Se    3.63200   1.26668   8.29066   0.08845   0.74154   0.07000
Se    5.31800   8.10479  10.59406   0.05310   0.31139   0.58000
Ge    3.54900   6.33931  10.09812   0.00960   0.65995  -0.43000
Se   10.68800   7.08682   2.81433   0.03663   0.96445   0.38000
Ge    2.64100   8.63923   2.14422   0.09605   0.94571   0.26000
Se    2.53300   5.50448   5.26743   0.07800   0.06143   0.12000
Ge    3.63300   0.32308   5.91066   0.00144   0.63703  -0.64000
Ge    0.13300   2.54509   1.03113   0.01475   0.58837   0.47000
Ge    7.08300   5.22796   1.30659   0.06049   0.79844  -0.30000
Ge    6.75500   9.48863   4.02425   0.03725   0.78703  -0.38000
Ge    6.70600   1.23631   7.14294   0.07292   0.90151   0.52000
P     8.19400   0.49240   8.74944   0.00311   0.55112  -0.55000
Ge    1.07400   8.55406   4.03198   0.04642   0.31081   0.12000
Ge   11.06800   4.48749   4.63239   0.02445   0.73422   0.29000
Ge   10.77700   1.01643  11.02247   0.00311   0.13630   0.22000
Ge   11.06100   9.45504   8.99935   0.06679   0.23485   0.15000
Ge    9.30800   7.65467   1.64532   0.08276   0.63855   0.13000
Se    5.06500   3.80284  10.58924   0.05262   0.89291   0.29000
Se    8.61300   4.85063   3.90039   0.08737   0.44188   0.06000
Se    8.35400   2.02517  10.90617   0.05627   0.53066   0.08000
    50
config_type=liqu Lattice="   11.36344   0.00000   0.00000   0.00000  11.36344   0.00000   0.00000   0.00000  11.36344"    Properties=species:S:1:pos:R:3:forces:R:3 energy=-11035.1470 pbc="T T T"
Se    2.43100   9.61490   4.85669   0.03676   0.61894   0.41000
Se    3.31100   7.03077   2.71413   0.09743   0.24202  -0.28000
Se    8.69000   7.59219   5.48420   0.04803   0.70919  -0.35000
Se    0.82800   5.61815   8.73088   0.51211   0.16489  -0.39000
Se    1.24600   4.69469   7.76504   0.09797   0.70682   0.41000
Se    4.78600   3.93566   2.75820   0.60711   0.13233  -0.12000
Se    3.14200   5.76708  10.83596   0.01029   0.28679  -0.61000
Se    4.77800   0.55367   2.40498   0.04887   0.08958   0.24000
Se    5.48800   9.45841   5.99555   0.00251   0.65526  -0.15000
Ge    3.88300   6.32280   4.08551   0.09339   0.22882   0.02000
Se    5.77500   8.27933   6.30224   0.02728   0.39667   0.17000
Ge    0.61000   0.93371   6.49139   0.03649   0.75992  -0.77000
Ge    6.64900   2.16386   6.48561   0.93910   0.81991   0.40000
Se   11.18900   9.73793   2.07812   0.06888   0.35707   0.68000
Ge    6.05100   3.98264   9.12900   0.06694   0.97612   0.41000
Se    7.79400   7.17641   0.92179   0.08280   0.29860   0.49000
Se    7.48200   9.36919   1.58169   0.03144   0.51327  -0.39000
Ge    3.01400   0.84858   7.01610   0.08041   0.34385   0.52000
P     8.95300   0.69852   7.25457   0.02310   0.18589  -0.41000
Ge    9.73600   2.95957   5.28121   0.07191   0.40934  -0.01000
Ge    6.65400   1.14945   3.02922   0.02161   0.44545  -0.27000
Se    0.28300   7.02086   0.16572   0.04383   0.28053   0.07000
Se    7.98100   0.54587   4.10281   0.16811   0.03830   0.66000
Ge    6.94600   9.65042  10.04533   0.05571   0.05092   0.50000
Se    1.80000   5.73820   6.41982   0.04873   0.41343  -0.17000
Se    0.68800   7.05002   1.66299   0.04590   0.21561   0.53000
Ge    3.93300   5.52952   7.99776   0.07388   0.28172  -0.27000
Ge    5.77500   4.19460   0.21451   0.03246   0.03789  -0.01000
Ge    2.14100   1.68075   1.87644   0.03539   0.48238  -0.15000
Ge    2.33800   3.70289   0.43748   0.05621   0.80881   0.08000
Se    3.81300   2.63850   8.22698   0.08635   0.61435   0.23000
Se    5.69200   5.97798   9.06219   0.89710   0.59275   0.59000
Ge    3.29000   7.17766   9.49491   0.04650   0.21399   0.08000
Se   11.00500   2.74223   3.32835   0.08895   0.12534  -0.10000
Ge    2.58200   3.26651   2.48102   0.08705   0.71542   0.12000
Se    2.38400   1.52234   5.27835   0.02911   0.19635  -0.39000
Ge    4.00000   7.57241   5.90077   0.08564   0.56815  -0.25000
Ge    0.30900   5.62257   0.97372   0.06125   0.92237  -0.04000
Ge    6.95600   6.83929   1.90172   0.09529   0.24085  -0.30000
Ge    6.54300   4.52039   3.67811   0.01525   0.61197   0.20000
Ge    7.03200   4.32839   7.23995   0.03133   0.24381   0.30000
P     8.62900   4.07751   8.61249   0.04451   0.83909  -0.35000
Ge    1.01500   4.67084   3.94936   0.01272   0.82852   0.13000
Ge   11.28500   2.87868   4.42929   0.07297   0.31796  -0.34000
Ge   10.72500   7.57839  11.01372   0.07291   0.02534  -0.68000
Ge    0.65700   6.32416   9.93625   0.08669   0.00570   0.31000
Ge    8.96800   1.28386   1.13421   0.08266   0.50339  -0.17000
Se    5.34500   0.98494  10.24386   0.06222   0.70048  -1.05000
Se    8.33800   6.40988   3.55903   0.09317   0.43379  -0.09000
Se    7.31300   5.09462  11.09231   0.09747   0.88465   0.51000
    50
config_type=liqu Lattice="   11.36344   0.00000   0.00000   0.00000  11.36344   0.00000   0.00000   0.00000  11.36344"    Properties=species:S:1:pos:R:3:forces:R:3 energy=-11034.0912 pbc="T T T"
Se    2.38100   6.94627   4.94779   0.09236   0.99436  -0.58000
Se    3.13100   0.07455   2.56825   0.08983   0.58544   0.48000
Se    8.72900   3.40804   5.25284   0.06153   0.50190  -0.38000
Se    1.18800   2.62909   8.91905   0.65710   0.84389  -0.05000
Se    1.01900   0.82948   7.56938   0.01317   0.65968   0.20000
Se    4.49800   2.18631   2.36932   0.59611   0.31220   0.70000
Se    2.87800   1.46869  10.61913   0.04457   0.69213  -0.30000
Se    5.28000   5.86453   2.57353   0.05436   0.76355  -1.02000
Se    5.31200   9.79821   5.82561   0.04751   0.97340   0.59000
Ge    3.21800   9.12371   4.09842   0.03179   0.97255   0.20000
Se    5.36100   3.28852   5.15883   0.09099   0.04483  -0.14000
Ge    0.26400   2.05832   6.78706   0.08479   0.92829  -0.31000
Ge    6.37500   8.72339   6.39097   0.37711   0.02439   0.36000
Se    0.01600   8.45810   2.25588   0.06598   0.36169  -0.40000
Ge    6.60500   2.49731   8.92110   0.06465   0.13141  -0.82000
Se    8.13300   6.64353   0.80487   0.06510   0.36748  -0.32000
Se    7.48500   4.64253   1.44919   0.03844   0.27642   0.46000
Ge    3.32600   3.38567   7.26287   0.04841   0.85454  -0.92000
P     8.65900   4.01491   7.25312   0.05370   0.00593   0.09000
Ge    9.86200   8.88126   5.48118   0.05231   0.26844  -0.07000
Ge    6.71400   3.64694   2.63520   0.08721   0.29068  -0.34000
Se    0.05500   8.02509  10.97215   0.01173   0.03710   0.11000
Se    8.24500   4.13259   4.02651   0.53211   0.22084   0.07000
Ge    6.96700   1.18579  10.20373   0.00871   0.21970   0.61000
Se    1.75100   8.83850   6.56158   0.05833   0.73969   0.22000
Se    1.26200   9.67903   1.70062   0.09830   0.20883  -0.95000
Ge    3.32800   7.84188   8.23671   0.04918   0.69739  -0.22000
Ge    6.04700   5.04661   0.28246   0.00686   0.06340  -0.03000
Ge    2.26500   7.83099   1.62319   0.06929   0.11535   0.37000
Ge    2.27600   7.38384   0.48736   0.08942   0.26579  -0.09000
Se    4.46600   6.63627   7.97080   0.00145   0.86904  -0.14000
Se    5.66100   9.75651   9.06405   0.43510   0.78886   0.05000
Ge    3.68100   5.43146   9.65605   0.03820   0.96917  -0.10000
Se   11.16400   7.27266   3.16643   0.09264   0.75986   0.19000
Ge    2.64600   7.16061   2.47324   0.05556   0.07518  -0.03000
Se    2.15000   8.79200   5.73091   0.05450   0.18115   0.13000
Ge    3.67400   5.64565   5.54033   0.08865   0.07064   0.83000
Ge    0.28400   3.00052   0.95341   0.03976   0.05341   0.36000
Ge    6.59300   8.81294   2.96245   0.07689   0.16431   0.33000
Ge    6.47600   2.97837   3.79353   0.05864   0.54534   0.37000
Ge    7.03900   9.23584   7.11586   0.02413   0.32275   0.54000
P     8.44900   3.53532   8.42166   0.08511   0.85019   0.04000
Ge    1.24400   5.70493   4.31132   0.00312   0.59472  -0.30000
Ge   10.68300   8.02789   4.93492   0.00116   0.37068  -0.20000
Ge   10.80700   9.21981  10.99268   0.02900   0.63653   0.36000
Ge    0.50400   6.16783  10.01194   0.02338   0.45219   0.36000
Ge    9.10200   0.70991   1.25533   0.09026   0.26138  -0.92000
Se    5.34900   4.41211  10.41877   0.02762   0.95422  -0.17000
Se    8.17700   8.94144   3.65731   0.00986   0.89740   0.75000
Se    7.73300   0.74039   0.05157   0.09087   0.87079   0.08000
    50
config_type=liqu Lattice="   11.36344   0.00000   0.00000   0.00000  11.36344   0.00000   0.00000   0.00000  11.36344"    Properties=species:S:1:pos:R:3:forces:R:3 energy=-11034.0378 pbc="T T T"
Se    2.24900   3.13539   4.80432   0.01796   0.91359   0.08000
Se    3.58600   0.22277   2.94445   0.03683   0.73480  -0.53000
Se    8.68100   5.92309   5.19813   0.05243   0.62486  -0.49000
Se    0.95400   6.05753   9.09743   0.91210   0.75302   0.17000
Se    0.89800   4.61146   7.63923   0.01147   0.44835   0.35000
Se    4.84000   1.13895   2.66205   0.88011   0.29925   0.25000
Se    2.77500   8.58816  10.80569   0.07297   0.94196  -0.49000
Se    5.02100   3.65102   2.69554   0.02296   0.82754  -0.62000
Se    5.52200   0.49596   5.87130   0.00511   0.72853   0.53000
Ge    3.70200   0.37690   4.11266   0.06549   0.87339  -0.49000
Se    5.35500   3.86365   5.79804   0.04208   0.99446   0.28000
Ge    0.19800   8.38484   6.95766   0.07249   0.98977  -1.14000
Ge    6.78500   5.09176   6.46174   0.27910   0.90091   0.01000
Se   11.27700   6.02935   2.32013   0.07758   0.30223   0.33000
Ge    6.11800   1.89743   8.88497   0.03775   0.23120   0.39000
Se    7.80300   9.91305   0.88981   0.00030   0.25834   0.33000
Se    7.50400   9.28609   1.16504   0.00404   0.15485   0.02000
Ge    3.33900   4.50868   6.95792   0.05611   0.56429  -0.57000
P     9.04700   1.33015   7.29218   0.02590   0.33787  -0.20000
Ge    9.81500   7.52401   5.18989   0.07911   0.42729   0.11000
Ge    7.08400   0.41220   2.88223   0.06341   0.53555  -0.95000
Se    0.64200   3.78377  10.89590   0.00893   0.11984  -0.86000
Se    8.12500   6.11914   4.16076   0.79211   0.02449   0.76000
Ge    7.04400   5.95980  10.11696   0.01471   0.34933  -0.04000
Se    2.08000   5.04983   6.41284   0.02353   0.69142  -0.16000
Se    0.68600   7.38410   1.29631   0.00050   0.00174   0.17000
Ge    3.17900   6.30100   8.07627   0.06088   0.74360  -0.23000
Ge    5.81300   1.97638   0.35000   0.01375   0.90658   0.26000
Ge    2.32000   2.21663   1.45328   0.03049   0.40069  -0.29000
Ge    2.37500   5.45824   0.73608   0.04432   0.03293   0.45000
Se    4.14700   0.33975   7.94108   0.08426   0.31477  -0.14000
Se    5.64100   5.83776   9.18195   0.51510   0.86784   0.51000
Ge    3.75200   9.77399   9.40230   0.03921   0.14178  -0.67000
Se   11.18400   5.74794   2.94055   0.08864   0.60163   0.21000
Ge    2.43900   9.77018   2.38338   0.05975   0.93717   0.50000
Se    2.16500   2.34867   5.82447   0.53511   0.04633   0.42000
Ge    3.86500   8.91222   5.57024   0.07285   0.30731   0.81000
Ge    0.25700   2.80159   0.85257   0.07676   0.18315  -0.30000
Ge    6.81300   9.09411   3.19455   0.06398   0.54734  -0.10000
Ge    6.30700   3.23384   3.45518   0.04794   0.70465   0.48000
Ge    7.03300   0.36405   7.16007   0.02463   0.40958   0.47000
P     8.64500   3.11124   8.57805   0.04472   0.13017   0.00000
Ge    1.40000   8.84320   3.88434   0.01652   0.66025  -0.11000
Ge   11.16600   1.95162   4.48371   0.05156   0.68823  -0.96000
Ge   10.57300   7.70487  10.58662   0.01970   0.83797   0.69000
Ge    0.32100   8.61456   9.93611   0.03758   0.22492   0.55000
Ge    8.93500   0.99966   1.50798   0.06506   0.39502  -0.25000
Se    5.27800   4.28418  10.13840   0.05073   0.02965  -0.22000
Se    8.17100   3.21176   4.16010   0.09406   0.81193   0.40000
Se    7.37800   2.05266   0.38306   0.09677   0.94384   0.14000
    50
config_type=liqu Lattice="   11.36344   0.00000   0.00000   0.00000  11.36344   0.00000   0.00000   0.00000  11.36344"    Properties=species:S:1:pos:R:3:forces:R:3 energy=-11033.7376 pbc="T T T"
Se    2.33900   8.12691   4.49904   0.00426   0.56588  -0.07000
Se    3.46100   5.30349   3.06713   0.08413   0.19315  -0.46000
Se    8.82100   9.78692   5.28227   0.02983   0.86111  -0.66000
Se    1.04100   1.95924   8.78472   0.01110   0.85815  -0.06000
Se    1.09200   4.11578   7.67493   0.03507   0.57656  -0.32000
Se    4.80700   9.87976   2.50128   0.79210   0.99787   0.01000
Se    2.39700   2.58473  11.08564   0.06828   0.18888  -0.08000
Se    5.07900   4.87354   2.77377   0.05336   0.88317   0.02000
Se    5.53100   4.29970   5.52394   0.08751   0.87019   0.14000
Ge    3.77800   0.52874   4.22406   0.05689   0.17053   0.25000
Se    5.89700   7.12061   5.55617   0.01868   0.95433   0.57000
Ge    0.09500   9.69133   6.85539   0.09979   0.76722  -0.02000
Ge    6.98000   8.15627   5.92453   0.75211   0.22110  -0.02000
Se   11.16100   9.23836   2.72296   0.04318   0.20510  -0.57000
Ge    5.87700   9.45744   9.26829   0.00964   0.96451  -0.24000
Se    8.13900   2.42866   0.69694   0.07281   0.00385   0.74000
Se    7.37000   2.35453   0.80988   0.08814   0.57495  -0.23000
Ge    3.28700   8.14796   6.79504   0.05091   0.33763  -0.11000
P     8.86900   2.10769   7.39941   0.05570   0.47002  -0.04000
Ge    9.85500   9.71494   5.49160   0.02771   0.55848   0.19000
Ge    6.23200   1.16443   2.55749   0.01691   0.77849   0.18000
Se    1.33600   6.29287  10.42189   0.01053   0.22364  -0.46000
Se    8.33000   4.50795   3.76877   0.05460   0.38514  -0.23000
Ge    7.12000   7.65059  10.08728   0.04201   0.39759  -0.62000
Se    1.64800   8.74038   6.58073   0.04123   0.26076   0.09000
Se    0.81000   9.74640   1.72139   0.09580   0.17249   0.00000
Ge    3.15200   1.44524   8.58840   0.01078   0.76104  -0.37000
Ge    5.72100   2.86727   0.29048   0.01046   0.54151   0.32000
Ge    1.99500   5.89209   2.19320   0.02179   0.21973   0.02000
Ge    2.77800   3.33166   0.60487   0.09941   0.64320  -0.35000
Se    3.76400   5.43324   8.16595   0.00865   0.91181   0.34000
Se    6.01100   3.40802   9.38574   0.29710   0.73560   0.12000
Ge    3.87900   9.56390   9.45817   0.09640   0.59994  -0.47000
Se   10.89000   9.84325   3.15627   0.04114   0.56192   0.35000
Ge    2.83600   5.13834   2.31761   0.05745   0.68019  -0.01000
Se    2.18500   4.55414   5.33996   0.07410   0.98874  -0.34000
Ge    3.70400   4.46622   6.08215   0.02594   0.69048  -0.05000
Ge    0.33500   0.72418   1.23657   0.00196   0.08334  -0.25000
Ge    6.84000   3.59609   2.47611   0.08459   0.05951  -0.07000
Ge    6.51100   3.93098   3.35455   0.09214   0.74644  -0.09000
Ge    6.93900   7.62554   7.04009   0.00993   0.63183   0.39000
P     8.55600   2.36740   8.41428   0.07282   0.35345  -0.78000
Ge    0.92300   0.70011   4.08345   0.08702   0.34013   0.43000
Ge   11.03800   1.00474   4.77087   0.01326   0.46760   0.11000
Ge   10.93500   7.95590  10.93718   0.04741   0.25215   0.78000
Ge    0.11100   4.19500  10.08446   0.03488   0.69962   0.69000
Ge    8.89900   5.67777   1.35705   0.05966   0.53010   0.20000
Se    5.04700   5.34757  10.47133   0.04392   0.88262   0.17000
Se    8.12100   0.03535   3.77217   0.08656   0.51694   0.65000
Se    7.53500   3.05560   0.12274   0.04188   0.34184  -0.04000
    50
config_type=liqu Lattice="   11.36344   0.00000   0.00000   0.00000  11.36344   0.00000   0.00000   0.00000  11.36344"    Properties=species:S:1:pos:R:3:forces:R:3 energy=-11033.9315 pbc="T T T"
Se    2.10400   2.59948   4.87678   0.00526   0.30433  -0.21000
Se    3.12900   4.61507   3.06833   0.08673   0.08949   0.84000
Se    8.61100   3.30205   5.15473   0.04663   0.28489  -0.03000
Se    0.68900   6.03272   8.77926   0.02480   0.22554   0.08000
Se    1.16400   7.83801   7.51068   0.06057   0.95200   0.40000
Se    4.77900   7.05419   2.47530   0.09610   0.92537   0.44000
Se    2.61400   1.62345  10.92226   0.02918   0.95486   0.50000
Se    5.02900   3.38635   2.24639   0.07807   0.29418  -0.43000
Se    5.50900   9.28799   5.90559   0.02902   0.03196  -0.09000
Ge    3.83300   3.22755   4.14876   0.05769   0.22907  -0.01000
Se    5.80500   2.57567   5.73065   0.02249   0.14583  -0.35000
Ge    0.51100   2.14490   6.38441   0.69910   0.41729  -0.64000
Ge    6.82900   9.82172   5.92938   0.54511   0.19317   0.65000
Se    0.02200   5.24623   2.19286   0.06498   0.38565   0.36000
Ge    5.96000   1.47444   9.00873   0.00174   0.99489   0.15000
Se    7.91100   1.95956   0.88119   0.04270   0.73671   0.93000
Se    7.35300   0.16875   1.56488   0.03134   0.77209  -0.20000
Ge    3.16900   2.65474   7.51410   0.08651   0.22735   0.41000
P     8.79300   6.31231   7.33062   0.02620   0.13990   0.04000
Ge   10.20900   3.96315   5.39049   0.08810   0.85993  -1.30000
Ge    6.54600   1.48293   2.72386   0.03931   0.51387  -0.43000
Se    0.68400   4.34365  10.94082   0.05503   0.66310   0.02000
Se    8.25300   9.12025   3.84602   0.53911   0.19723   0.37000
Ge    6.91500   7.30980  10.08482   0.05881   0.17633   0.51000
Se    1.56500   9.42713   6.87046   0.00432   0.92555   0.03000
Se    0.39000   9.41622   1.51344   0.06520   0.58571   0.21000
Ge    3.78400   7.33193   8.22762   0.08018   0.28978  -0.68000
Ge    6.36100   3.22297  11.30017   0.07216   0.45596  -0.74000
Ge    1.99300   5.54703   1.85478   0.00329   0.89258  -0.31000
Ge    2.30000   4.14883   0.87984   0.02042   0.07263   0.02000
Se    3.78900   6.47909   8.04273   0.06285   0.69355   0.25000
Se    5.94100   5.99104   9.33969   0.12810   0.59098  -0.53000
Ge    3.73900   8.65516  10.07991   0.08140   0.20808  -0.24000
Se   10.81900   5.90250   3.17964   0.02914   0.07758   1.01000
Ge    1.78700   2.71440   2.58896   0.05225   0.27463  -0.69000
Se    2.58400   5.95248   5.48972   0.18311   0.12584   0.60000
Ge    3.44400   4.77909   5.58194   0.01814   0.37879  -0.07000
Ge    0.63500   3.90548   0.30171   0.05136   0.84431  -0.24000
Ge    7.01100   1.35260   2.44497   0.01118   0.81408   0.13000
Ge    6.50100   2.91102   3.74276   0.08085   0.97872   0.04000