50
config_type=amor Lattice="   11.36344   0.00000   0.00000   0.00000  11.36344   0.00000   0.00000   0.00000  11.36344"    Properties=species:S:1:pos:R:3:forces:R:3 energy=-10690.2498 pbc="T T T"
Se      0.836878882     10.055090759      7.665364499     -1.662804639      0.295146645     -0.053881959
Se      9.260587964      3.453682000      1.332686646      0.437891088      0.414364639      0.299348813
P       7.148533205      6.369599451      9.006169185      0.611960624      1.365887913     -0.047053620
Se      4.202678453      2.979058725      7.196154094     -1.178832053      0.953047512     -0.614127427
Se      0.020366216      8.778408469      4.778170989      0.080212745     -0.514348054     -1.831696579
Se      6.323818467      2.789704686      9.921721756      0.680003215      0.182842394      0.271304796
Se     10.250194738      0.574939273      5.382112843      0.088386604      0.284198443      0.392714171
Se      7.783842706      8.332311830      4.663613758     -1.892984444      0.961865312     -0.575814359
Se      5.240345634     11.307920063      9.697214644     -0.995768628     -1.027486804      0.085325576
P       0.781213565      2.152987427      5.783926998     -0.360235774      0.151340471      0.216821100
Se      1.661837541      5.107868386      0.338459771      0.414451211     -1.318029324     -0.133844292
Ge      4.682169051      9.199437912      4.809271675      0.811877942     -1.080492380     -0.481495396
Ge      0.069069105      7.322468710      6.627728683      0.238980946     -1.677909906      0.525570031
Se      3.675115811     10.830734255      6.181427971      0.466083868      1.595509477      0.201868604
Ge      6.618634961      4.363421610      8.037142987     -0.476223100     -2.005817345     -0.825718321
Se      3.018841229      7.584905432      5.645340152      0.079877301     -1.104442007      0.140838341
Se      8.000765634      0.102608825      2.020057665     -0.343832131      0.257297346     -1.052377986
Ge      5.721838402      1.025089201      7.215621490     -0.260708191     -0.198874507      0.017682149
P       7.049583387      4.576971891      1.935138026     -0.112303644      0.446995814     -0.285379992
Ge      9.549799467      9.171275543      6.492165148     -0.418328699      0.772400885      0.176732718
Ge      6.247273135      9.928955157      2.493413823      0.212446344     -0.714807486      0.463824449
Se      6.641322082      7.707629268      7.082072226     -1.074065894     -0.404424346      0.916428528
Se      2.758839542      7.967897530     34.376772711     -0.423434294     -0.009720801      0.524099191
Ge      2.768003793      2.579394106      0.657115448     -0.114348700     -0.051694082      0.102272400
Se      9.542683928      5.838046412      8.516806014     -0.969088672     -0.447798343     -0.468980207
Se      7.355865059     10.405328116      8.784063398      1.007076014      0.392714659     -0.146359126
Ge      0.066107224      2.903023428     10.998319244      0.443330609      0.484378639      0.509200003
Ge      2.032797717      9.698430624      9.983683296     -0.054666030      0.821909635      1.085873415
Ge      4.755554352      0.965568549      3.892331241     -0.089052379     -0.281225363     -0.034674190
Ge     10.249652564     -0.167265715     -2.253745948     -0.367693482     -0.494045690     -0.283841827
Se      5.308103701      5.573163388     -7.923929958     -0.988102579     -0.018079949     -0.628378894
Se      2.519725731      2.256756018      3.656158200      1.067527603      0.705829507     -0.800434709
P       7.429066560      6.969152316      1.057675558     -0.580431067     -0.605681594      1.321778209
P       7.749454954      7.939385743     10.547295132      0.289144286      0.130491658     -1.192915685
Ge      9.437030912      8.010459591     -8.305027791      1.449864482      1.142129758     -1.625689713
Se      5.394345556      7.889794536     11.026934293     -0.642245362     -0.176878679      1.213448381
Ge      8.151253428      1.770715527      8.375842471     -0.701413127      0.062879728      0.164168583
Ge      8.548066525      1.828585729      3.541660279      0.023496924      1.025473388      0.909014991
Ge      4.730494961      5.635733582      5.902358088     -0.034623813      0.132088327      0.171295396
Ge      0.560370825      7.738784138      9.553418413     -0.656096090     -0.393731055      0.949569112
Ge      0.577728615      1.774451175      8.277667097      1.517987327     -0.870237450      0.341550591
P       2.324227178      0.687846219     10.078205935      0.355687813      0.875739680      0.038307008
Ge      4.069762103     -2.359993494      8.696854407      1.122539631     -0.050780874     -0.404637941
Ge      8.788053837      5.583727414      3.259645934      0.377992258     -1.475067957      0.015883755
Ge      1.481309016     11.339949809      4.640264056     -0.591679199      0.042927017      0.267018826
Ge      2.430457307      5.200965616      2.987136502      0.128648406     -0.061318668     -0.139929032
Ge     10.223459030      3.538205244      7.786882352     -0.503742618      1.161740765     -0.644777488
Se      6.368712176      2.406285144      5.085516798      0.518007559      0.742566734     -1.372494759
Se      0.315163606      4.783818712      5.798560664      0.683708790     -0.380882101      0.729765891
Se     10.272471311      9.261495732     11.042932411      1.392627978      0.079082095     -0.834637280
50
config_type=amor Lattice="   11.36344   0.00000   0.00000   0.00000  11.36344   0.00000   0.00000   0.00000  11.36344"    Properties=species:S:1:pos:R:3:forces:R:3 energy=-10690.3341 pbc="T T T"
Se      0.745776643      9.889024900      7.775504480     -1.109970462      0.566496915     -1.003599449
Se      9.333249038      3.427982054      1.415811125      0.005242204      0.496827947      0.070622655
P       7.282649911      6.683443669      9.023096358     -0.798771818     -1.060859667     -1.770191367
Se      4.133283863      2.991778981      7.192122124     -0.433345601      0.900586772      0.133703987
Se      0.078478817      8.830213723      4.686066283      0.091631265     -0.131751993      0.174625163
Se      6.276101816      2.917491692      9.979114334      0.760082442     -0.207676377      0.899765959
Se     10.210886579      0.609825814      5.360574595      0.533211947     -0.109652339      0.804720871
Se      7.766768215      8.474534974      4.511805443     -1.045011764      0.253128633      0.847834411
Se      5.090838812     11.313747029      9.543794835     -0.428527621     -0.012557956      0.524319959
P       0.920568122      2.106056131      5.767664508     -0.595818072      0.226045683      0.280380363
Se      1.807398268      5.052863146      0.197326525     -0.148100558     -0.961133609      0.493022259
Ge      4.699507144      9.250947304      4.701263203     -0.906844692     -0.811573179      0.644878023
Ge      0.165495240      7.296243473      6.654128666      0.647395404     -1.273146545      0.494193729
Se      3.589043709     10.799744206      6.378519304      0.639619351      0.750637473     -0.097979080
Ge      6.600284736      4.508711378      8.265966710     -0.325574584     -0.850066719     -1.121854209
Se      2.905195793      7.546686926      5.670667952      1.147215823     -0.925167393     -0.388926908
Se      7.960866079     11.356637753      2.068141332     -0.245541237      1.254054359     -0.468805249
Ge      5.750195761      1.072796582      7.211749550     -0.827180528     -0.445995265      0.328118614
P       7.104756656      4.782885467      1.885506491     -0.423105427     -0.279090662     -1.131482267
Ge      9.577185592      9.100520805      6.502637990     -0.311904334      0.443912649      0.233002313
Ge      6.162681367      9.954429268      2.365561746     -0.494926447     -0.354192548      0.323786645
Se      6.484274384      7.762482692      7.101825255     -0.369019695     -0.232095937      0.348858230
Se      2.830226675      7.907244342     34.429668778      0.239540600     -0.554847439      0.062815416
Ge      2.689667710      2.531742266      0.685371179     -0.258617269      0.447739389     -0.052860295
Se      9.605917640      5.727801357      8.399674385     -0.602191256      0.554621406      0.294797901
Se      7.366534227     10.417406648      8.739417191      1.258333404     -0.080270282     -0.380777867
Ge      0.157833238      2.851440563     10.951932993     -0.012093721      0.426157343      0.440102374
Ge      2.001665290      9.594391730     10.061035198      0.458897348      1.550969411      0.799380832
Ge      4.746010263      1.195873698      4.041117519     -0.510299116     -1.116445020     -0.741203260
Ge     10.141299323     -0.214230495     -2.338670649      0.087383950     -0.462619682      0.265726598
Se      5.192534698      5.538581096     -7.898989332     -0.371715680      0.415977646     -0.698341594
Se      2.479804777      2.189790660      3.608338481      0.075574732      0.753765269      0.008582822
P       7.510138342      6.842293964      1.128841094     -0.015674344      0.518323210      0.038745480
P       7.923348497      7.983208165     10.390294501      0.791978277      1.463289505      2.181248323
Ge      9.575674386      8.085447931     -8.302399028      0.976262898      0.421832070     -1.991539370
Se      5.448381659      7.896296989     11.084570692     -0.975595752     -0.368620687      0.129056024
Ge      8.107585509      1.888143593      8.456050827     -0.479124465     -0.383229981      0.521374451
Ge      8.479890929      1.854095107      3.681577883      0.453757658      0.699685347     -0.098022020
Ge      4.766335558      5.668896477      5.982320071     -0.257391824     -0.093226862      0.257107875
Ge      0.579020119      7.632202870      9.607103927     -1.197900850     -0.815881880      0.645574042
Ge      0.622933504      1.644847941      8.298393380      0.895655589     -0.630916700      0.612245107
P       2.289273116      0.736673133     10.285468529     -0.559358781      0.672924050      0.202111090
Ge      4.101204282     -2.198803144      8.682680289      0.348646848     -0.545120043     -0.334484835
Ge      8.871076493      5.498818147      3.196816698      1.003707671     -0.687234343     -0.000040942
Ge      1.352423009     11.316696192      4.574300492      0.141455274      0.298411841     -0.031462586
Ge      2.419306159      5.321473560      2.904886657     -0.152964968     -0.253470255      0.002795235
Ge     10.134664247      3.437525038      7.631294380      0.512228312      0.607033673     -0.466103536
Se      6.457804135      2.451893732      5.135272233      0.845347939      0.882065198     -1.226718717
Se      0.506548914      4.684672810      5.768924612      0.311420356      0.114913410     -0.186127117
Se     10.319778373      9.170670735     10.957943127      1.142464509     -0.294359712     -0.363737264
50
config_type=amor Lattice="   11.36344   0.00000   0.00000   0.00000  11.36344   0.00000   0.00000   0.00000  11.36344"    Properties=species:S:1:pos:R:3:forces:R:3 energy=-10690.2828 pbc="T T T"
Se      0.609093639      9.757939726      7.849253655      0.502426923      0.669762495     -0.130813232
Se      9.447485651      3.414196680      1.504819063      0.287195019     -0.063801925      0.432520745
P       7.328000110      6.865059863      8.857782914      0.397016747     -0.227420291      1.332936751
Se      4.042769670      3.049666400      7.199658719      0.476009926      0.167199973     -0.078733748
Se      0.142875978      8.856067709      4.548085751      0.745378124     -0.966649090      0.429941700
Se      6.266631396      3.021998129     10.093227452      0.012022347      0.019621987      0.808568199
Se     10.169529915      0.683633013      5.348814912      0.215659354      0.383917695      0.432082807
Se      7.688666299      8.637050596      4.361224065     -0.491828174     -0.336640010      0.566122607
Se      4.902972005     11.302624632      9.431833413      0.584010593      1.209473853      0.981561118
P       0.972803039      2.067368013      5.840397179     -0.178012018      0.243833242      0.348390535
Se      1.947138065      4.938798420      0.064417515     -0.425036716     -0.541729076      0.525543727
Ge      4.674179519      9.257068618      4.638650113     -0.583451688     -0.153075521      0.560844972
Ge      0.306708741      7.174243500      6.709465308     -0.272219924     -0.691926729     -0.325134337
Se      3.553886683     10.806016643      6.562256065      1.166969829      0.254879284     -1.039638501
Ge      6.562174439      4.584706207      8.403334782     -0.199194270     -0.254895509     -1.165793269
Se      2.829764630      7.478436975      5.673390777      0.271782122     -0.146463143     -0.314022973
Se      7.949814069     11.285365602      2.081307319      0.245111375      1.474665212     -0.365265184
Ge      5.738389240      1.106724711      7.254525533     -0.666328427      0.274805574      0.221520286
P       7.034172244      4.940656222      1.719837431      0.303749245     -1.533209745      0.675820289
Ge      9.563596272      9.071922813      6.512360158     -0.455998224     -0.115169512     -0.094692922
Ge      6.051192834      9.925801220      2.244949745      0.088224056     -0.489665705      0.638321595
Se      6.308094651      7.827075986      7.166824615     -0.411125381      0.198410850     -0.341387782
Se      2.910101715      7.829426111     34.495872262     -0.323061155     -0.135705224      0.752274586
Ge      2.610627565      2.496899435      0.709217733      0.329628689      0.133108982      0.545467712
Se      9.642912577      5.638394560      8.289311451     -0.411246409      1.389627311      0.392955987
Se      7.460099660     10.454510624      8.690692449      1.207814462      0.302550128     -0.003565900
Ge      0.252189336      2.829964836     10.921840698     -0.290884447      0.742669058     -0.077343084
Ge      2.004919246      9.599486242     10.220461614      0.144534056      0.811833717     -0.149308304
Ge      4.705994971      1.357819222      4.157745110     -0.081389306     -1.174785613     -0.449854133
Ge     10.008882688     -0.313272981     -2.412703632      0.006248212     -0.371806292      0.491802223
Se      5.026049684      5.521250232     -7.901158670     -0.716296125      0.257091522      0.191335173
Se      2.460465218      2.183201025      3.498531075     -0.485881908      0.792745074     -0.744776534
P       7.576836844      6.847327352      1.187929148      0.181584840      1.264182960     -0.316615671
P       8.141524354      8.287610958     10.515150254     -1.039683469     -0.620128704     -0.516516556
Ge      9.758732189      8.187460023     -8.420176863     -0.801591149     -0.051480082     -1.076280766
Se      5.485058775      7.905420157     11.148118033      0.276921756      0.430340801      0.356834514
Ge      7.997955636      1.980862327      8.568858423     -0.545352111      0.084735810      0.579314077
Ge      8.448687071      1.890855985      3.819665140      1.042392257      0.070883722     -1.375806247
Ge      4.788127838      5.704754812      6.097682452     -0.521516450     -0.217332773      0.200537844
Ge      0.521190809      7.448701377      9.702898448      0.054646063     -0.910988851      0.375363372
Ge      0.730906688      1.450647696      8.361579711      0.460673975     -0.382466307      0.526550654
P       2.244285269      0.839536223     10.449910263     -0.297173470     -0.189857346     -0.672946282
Ge      4.179196065     -2.060809266      8.654236438     -1.402851004     -1.872003511     -0.682168535
Ge      9.031212107      5.366227308      3.156578977      0.184211250     -0.559132761     -0.266801227
Ge      1.215226624     11.282649498      4.522143973      0.201477157     -0.038566032      0.516536051
Ge      2.428745406      5.449029255      2.817268167      0.086835129     -0.270932122      0.314398741
Ge     10.059088153      3.388964579      7.424332506      0.456887326      0.201890133     -0.303738167
Se      6.593218996      2.553744954      5.135404417     -0.284193632      1.054826470      0.480404445
Se      0.689526787      4.563710623      5.763022908     -0.244822697     -0.463607840      0.178639006
Se     10.417738151      9.071750138     10.836097124      0.329071364      0.533943607      0.724004379
50
config_type=amor Lattice="   11.36344   0.00000   0.00000   0.00000  11.36344   0.00000   0.00000   0.00000  11.36344"    Properties=species:S:1:pos:R:3:forces:R:3 energy=-10689.8808 pbc="T T T"
Se      0.474679080      9.651926150      7.893548258      0.377550819      0.218546131     -1.015378145
Se      9.602784821      3.385828886      1.587092881     -0.474897427     -0.781889430     -0.091357260
P       7.382706414      7.025273100      8.874033134      0.164349183     -0.564988158      1.153819770
Se      3.945404366      3.117496059      7.206732463     -0.080439177     -0.093308992      0.236199640
Se      0.206648210      8.825916983      4.422799115      0.456619775     -1.048328025      0.790697194
Se      6.278800666      3.096841558     10.288500226      0.396176045      0.671745297      0.219053498
Se     10.139385082      0.777369860      5.367897486      0.496237379     -0.020569003      0.904146805
Se      7.597420112      8.802309286      4.210985700     -0.626691768     -0.182238345      0.281430310
Se      4.735882719      0.025899271      9.440646549      0.993529405      1.559386688      1.863399274
P       0.996311873      2.066430073      5.982849974      0.167332519     -0.308877181     -0.092280964
Se      2.085489059      4.784192726     11.306529540     -0.263859621     -0.634047743     -0.161988486
Ge      4.605532428      9.248045850      4.633845548     -0.451331129     -0.294129226      0.688638610
Ge      0.461039845      6.992525344      6.752850216     -0.296808483      0.143558515      0.108106607
Se      3.566059713     10.825972138      6.672126804      0.267969957     -0.413867124     -2.102021319
Ge      6.510244503      4.650840657      8.446160885     -0.141261325     -0.029034275     -0.660683595
Se      2.800522290      7.384022880      5.659716975      0.757816020     -0.178609962      0.002849040
Se      7.961349497     11.282866589      2.071003543     -0.219934648      1.400245928     -0.535666272
Ge      5.672314931      1.153495088      7.319029576     -0.861692723      0.653068247      0.296748935
P       6.922871823      4.961440021      1.580384576      0.811292776      0.776624708      0.624175226
Ge      9.523023634      9.065565666      6.487837408      0.066956909     -0.070018733     -0.543047892
Ge      5.940817273      9.854489801      2.140855283      0.699843907     -0.135512553      0.497592930
Se      6.120506894      7.934211474      7.229539476      0.592160151      0.381257720     -0.718647033
Se      3.001629058      7.747287268     34.563537837      0.325919713      0.615923494     -0.229782684
Ge      2.567532922      2.483271740      0.777690613      1.001739340     -0.151089389      0.989948499
Se      9.658300596      5.586519980      8.196620171     -0.340065450      0.331599922      0.469348612
Se      7.626634086     10.506626635      8.643963324     -1.515082012      0.085884657      0.172334174
Ge      0.318416283      2.851031397     10.887578993     -1.035744773      0.349568910     -0.090777944
Ge      2.040963821      9.656647386     10.422959502      0.335934740     -0.474180328     -0.312731472
Ge      4.644961276      1.445254506      4.258088169     -0.132197272     -0.823613319     -0.164045338
Ge      9.868924643     -0.426672387     -2.479837989      2.384495298      0.776964284      1.144638093
Se      4.827175804      5.522825463     -7.925711913      0.892398413      0.039565065     -0.307509877
Se      2.432870172      2.227100181      3.344503750      0.151341781      0.039210162     -0.261409285
P       7.668090476      7.094742369      1.199085097     -0.357364427     -0.864744462      0.205722728
P       8.142839269      8.577884902     10.612319216     -0.481282971     -0.259251627     -0.202847176
Ge      9.889627879      8.295353747     -8.614738970     -1.148840838      0.316826385     -0.852032038
Se      5.534062998      7.925461799     11.212455513      0.055736733      0.494907442     -0.412284933
Ge      7.858134838      2.059569244      8.711369228      0.324726116     -0.121563428      0.078649165
Ge      8.484888137      1.900224765      3.861134794      0.583450554     -0.425896260     -2.295571236
Ge      4.778267889      5.719564559      6.214701823     -0.182858472     -0.535172057     -0.161165667
Ge      0.460913468      7.181508317      9.796027930      0.533490500     -1.227631656     -0.230242481
Ge      0.855323146      1.218433494      8.453669701     -0.579094264      0.086710579     -0.377603285
P       2.161081781      0.901449361     10.487852199      0.098992230      0.108695186     -0.047167937
Ge      4.208173008     -2.069254977      8.594350013     -1.084820947     -1.778820734      0.344961354
Ge      9.218374726      5.218486372      3.106901280     -0.690047562      0.376101922     -0.192070744
Ge      1.090016469     11.262089348      4.477945219      0.640730367      0.487212518      0.221516690
Ge      2.457395104      5.590750197      2.728967674     -0.282495032      0.183259278     -0.290899185
Ge     10.012118322      3.352854969      7.179211600      0.190961427     -0.230103701      0.351776403
Se      6.724850126      2.721251529      5.135672049     -0.719328665      0.933983722     -0.085643534
Se      0.853546750      4.425243225      5.781147736     -0.833817857      0.655630642      0.023387983
Se     10.536390265      8.992237976     10.745900978     -0.650281876      1.143371443      1.318369157
50
config_type=amor Lattice="   11.36344   0.00000   0.00000   0.00000  11.36344   0.00000   0.00000   0.00000  11.36344"    Properties=species:S:1:pos:R:3:forces:R:3 energy=-10688.8507 pbc="T T T"
Se      0.387604931      9.549940359      7.877419778      0.327180343      0.404335711     -1.319871721
Se      9.798634056      3.308495990      1.636484934      0.112519932     -0.946977287     -1.201121956
P       7.401482075      7.172276988      9.103305718     -0.922727722     -0.022305062      1.088263194
Se      3.854091795      3.184271134      7.205111150     -0.171549494     -0.043624438      0.340431993
Se      0.251373644      8.743397677      4.333447717     -0.875957375     -0.119042110      0.271721781
Se      6.303759915      3.173081540     10.532862034      0.099236587      0.076739633      0.091062143
Se     10.135672593      0.862296822      5.425931400      0.949643709     -0.528748273      0.795820696
Se      7.497991344      8.966410776      4.063493113     -0.682150117     -0.486050094      0.223247389
Se      4.609075787      0.192128102      9.575595088      0.777125089     -0.085336656      1.543456503
P       1.059917827      2.046211666      6.168091292     -0.056456151     -0.573494858     -0.298529378
Se      2.222562131      4.608909047     11.194160876     -0.083438114     -0.051077565     -0.283495219
Ge      4.515885572      9.223568403      4.685235919      0.185101107      0.017739929      0.648408797
Ge      0.599203472      6.791989043      6.813428841     -0.788493104      0.264099717      0.424282113
Se      3.609584338     10.846379655      6.677898615      0.281282783     -0.059747473     -1.155567954
Ge      6.460846460      4.719124092      8.444674962      0.037861465     -0.467625747      0.553753517
Se      2.825769329      7.276746561      5.634731308      0.666923243      0.239706774     -0.633002983
Se      7.970231629     11.343039479      2.037328359     -0.470673514      0.194602569     -0.728215011
Ge      5.543321102      1.231582240      7.398257069     -0.446657501      0.239509838      0.466527014
P       6.928329007      5.147093643      1.532233442      0.803378688      0.593569079      0.801792569
Ge      9.481206627      9.056757728      6.403816731      0.613227468     -0.013394486     -0.619219679
Ge      5.884502571      9.769071541      2.065072030      1.019085254      0.851783653      0.807586288
Se      5.969687453      8.077784557      7.291799904      1.116411762     -0.053966965      0.115642591
Se      3.065162551      7.677554257     34.631241992     -0.007990258     -0.140017617     -0.031361857
Ge      2.602266410      2.474211511      0.891829699      0.920247506     -0.857622190     -1.826255717
Se      9.640995712      5.572650246      8.128506070     -0.317730567     -0.435478678      0.617443059
Se      7.706662360     10.545874235      8.570753639     -2.207282874     -0.266858400      0.169867964
Ge      0.321084656      2.905129698     10.826758239     -0.376757243     -0.022095381     -0.312055854
Ge      2.094339669      9.695406896     10.632280315     -0.078075997     -0.434428178     -0.360128626
Ge      4.578272010      1.494555520      4.373991656      0.469688806     -0.033099080      0.466165319
Ge      9.879641955     -0.478529711     -2.488726156      2.675600752      0.951326061      0.817138599
Se      4.663158698      5.531862333     -7.977393075      2.092795626      0.364731210     -0.673804855
Se      2.393595601      2.289619740      3.188049795     -0.593266601     -0.391796422      1.417588135
P       7.668018261      7.269580924      1.171031053     -0.142054222     -0.709762379      0.079642298
P       7.926099127      8.703988560     10.650381629      0.102466064     -0.906596070     -0.235497576
Ge      9.939091295      8.407950253     -8.862221527     -0.974501801     -0.195115007     -0.539151882
Se      5.605259261      7.963217357     11.262235356     -0.255327334      0.173637397     -0.777447334
Ge      7.730444717      2.136337066      8.859634718      0.301806141      0.207257086      0.123037326
Ge      8.567589867      1.868143873      3.766464781     -0.734659278     -0.059081129     -0.703901370
Ge      4.744971081      5.700514211      6.310868925      0.137157466     -0.332891353     -0.291469387
Ge      0.435757134      6.816544281      9.844940598     -0.137645636     -0.647254241     -0.048906666
Ge      0.936649077      0.970206367      8.518894481     -1.442484402      0.415899379     -1.591705853
P       2.102993290      0.925511730     10.475127538      0.892726230      0.634208578      1.118672070
Ge      4.165496449     -2.198961415      8.545980607     -0.873393600      0.813403752      0.919339525
Ge      9.374264796      5.117509492      3.052616440     -1.115307242      1.419348787     -0.033005201
Ge      0.983227123     11.273745235      4.439574563      0.467930271      0.696623194      0.510724466
Ge      2.465593488      5.755871173      2.627031259     -0.919651235      0.529702200     -0.466904797
Ge      9.985233789      3.324343636      6.929072967      0.153607161      0.181708086      0.598431164
Se      6.808152610      2.934498636      5.138317676     -0.143485461     -0.044912383     -0.132472414
Se      0.980685601      4.289313132      5.814028760     -1.271261457      0.661091354      0.603096019
Se     10.647861534      8.958818221     10.741508073     -0.603394781     -0.457153564      1.227301023
50
config_type=amor Lattice="   11.36344   0.00000   0.00000   0.00000  11.36344   0.00000   0.00000   0.00000  11.36344"    Properties=species:S:1:pos:R:3:forces:R:3 energy=-10688.7145 pbc="T T T"
Se      0.352828340      9.429875520      7.783769877      0.565716480     -0.238100212     -0.945873279
Se     10.034606673      3.153504663      1.644607951     -0.384455551      0.220229934      0.079491791
P       7.291592580      7.216307686      9.320224831     -0.958780828     -1.361503576     -1.295030572
Se      3.773863780      3.246587231      7.192518896     -0.566164798      0.354300236     -0.003830970
Se      0.247394358      8.635451793      4.265901403     -1.078700436      0.236787583      0.411002549
Se      6.336652397      3.281310620     10.777127313     -0.102558304      1.034094260     -0.869875983
Se     10.160029228      0.908827845      5.509649761      0.127294204     -0.314735084     -0.352080597
Se      7.375404599      9.121567786      3.931688815      0.208160165     -0.619892401      0.703480937
Se      4.508526166      0.336335389      9.774200927     -0.426178908     -0.976126516      0.276216986
P       1.195207001      1.917222356      6.341911359      0.053355939     -0.010312711     -0.845247466
Se      2.352427106      4.447338163     11.084937488     -0.495155664      0.889096116      0.605135417
Ge      4.430101463      9.190714599      4.773213093      0.127743739     -0.056126091     -0.292060814
Ge      0.690444904      6.585438631      6.910474630     -0.595745006      0.243534157      0.144826393
Se      3.665977352     10.850849887      6.605742302     -0.219306008     -0.823815064     -0.570106717
Ge      6.417609031      4.765677542      8.469244351      0.021912447     -0.200753918      0.562147105
Se      2.885951348      7.185293281      5.610621901     -0.614342484     -0.074435566      0.393388988
Se      7.974580133      0.068431103      1.966432595     -0.165578061     -0.152407405     -0.409057791
Ge      5.384530585      1.339425709      7.505358950      0.307242565      0.025131203      0.555463742
P       7.047346885      5.457994248      1.599589675     -0.739842298     -2.249522372      0.821845634
Ge      9.465159211      9.040443546      6.258175162      0.814345096     -0.003605904     -0.588850271
Ge      5.879894733      9.714037799      2.043855741      0.106399696      0.844950293      0.851430320
Se      5.923820541      8.206795437      7.354801537      1.187463259     -1.422366613      0.274928812
Se      3.072850065      7.623191221     34.715771899     -0.621864592     -0.160074596     -0.052431485
Ge      2.712194373      2.431664120      0.926068484      0.859419064      0.107191118     -1.351659342