    80
config_type=liqu Lattice="   13.07380   0.00000   0.00000   0.00000  13.07380   0.00000   0.00000   0.00000  13.07380"    Properties=species:S:1:pos:R:3:forces:R:3 energy=-10702.8740 pbc="T T T"
Ge   11.10453   0.99049  11.17096   0.93111  -0.66769  -0.86731
Ge    2.13820   8.85479  10.39526  -0.18941   1.29280   0.29569
Ge    1.66888  11.31454  10.63533  -0.63546   0.11921   0.96707
Ge    8.75999   9.82989  11.20428   0.38033  -0.26943   0.92588
Ge    5.69954   3.12987   6.00945   0.55820   0.10138  -0.56760
Ge   11.70667  12.96463   0.52739   0.18159   1.53401  -0.34784
Ge   11.84614   6.83433  12.30379   0.04190   1.99595  -0.41449
Sb    4.25116   8.58717  12.28822  -0.27020   1.42459  -0.12139
Te    1.47764   4.62816   2.38355   0.28278  -0.01699  -0.95691
Te   10.53679  10.04260  12.75587   1.13577  -2.05890   0.12633
Ge    1.47687   0.32070  11.51738  -0.50621  -0.23799  -0.04319
Ge   12.43265   7.11491   5.09823  -0.41502   0.73979   0.17136
Ge    6.40251   9.77947   7.78016   0.56933  -0.74984  -0.37747
Ge   12.18996   9.43242  10.06108   0.18627   0.15713  -0.48769
Ge    9.34265   9.01847   8.94825  -0.30206  -1.31347  -0.87336
Ge    8.98256   3.70898   2.73059   0.50975  -0.10923   0.56378
Ge    1.23690  10.48450   1.96925  -0.82093  -0.55312   0.37844
Sb   12.86056   7.65814   8.33260   0.33999   0.46954  -1.07210
Te   10.57270  12.78330   4.51509   0.34706  -0.24890   0.52802
Te    3.08999   0.70101   8.71909   0.24585   0.46456  -0.24074
Ge    6.79301   9.20262   4.63331   0.63521  -0.56150   0.09618
Ge    5.35659   9.87099   1.60586   0.06804  -2.27583   1.11190
Ge    1.45423   1.83138   9.40502  -0.40760  -0.77990  -0.39149
Ge    3.60185   6.39681   8.19158   0.79819   0.02812  -0.38710
Ge    7.33837   3.44055   0.33087  -0.11196  -0.45085   0.52101
Ge    2.05912  11.01174   5.62274  -0.05895  -0.07282   0.30393
Ge    4.19204   6.03322  11.25579   0.41050  -1.41171  -0.02992
Sb    3.26216  10.40667   9.04004  -0.49027  -0.60826  -0.69545
Te    0.97374   6.20863  12.10860   0.55806   0.28879   0.10980
Te   11.06587   9.78171   6.39675  -0.19189   1.18696  -0.25545
Ge    7.95321   1.49998   5.21433  -0.04061   0.76878   0.02255
Ge    0.89626   5.35743   9.93585   0.92446  -0.42928  -0.07997
Ge    9.74852  11.13143  10.21921   1.81639   2.24861   0.70081
Ge   10.50548   7.21136   6.28261   0.58760  -1.14184  -1.23517
Ge    0.12097   7.06920   2.31397   0.29688   0.35489   0.29980
Ge    9.54930   4.44996   0.35598  -1.11363  -1.51504  -0.67938
Ge    6.89471   6.43196  12.38588   0.38257   0.27404  -0.10354
Sb    6.42110   0.75364  12.20959   0.17456  -0.36600   0.15540
Te   10.18601   5.70419   2.63471   0.68276   0.26722   1.64695
Te    3.32016   2.87069  11.91821  -0.21733   0.41373  -0.90576
Ge    6.73236   7.01914   6.44047  -0.85263   0.77247   0.06253
Ge   11.63659   4.25227   7.67954   0.13964   0.65103   0.09455
Ge    4.76755   5.26553   1.17332  -0.44467   0.36342   0.00413
Ge    9.68082   7.11425   8.60584  -1.83377  -0.64827   0.77618
Ge    7.02103   3.48197  10.19304  -2.85888  -0.30956  -0.92043
Ge   12.60511   4.32481  13.01346   0.68577  -0.09076   0.82298
Ge    4.24544   0.99512   3.01293   0.22848  -0.28274   1.03903
Sb    5.82653  12.53992   5.97901  -0.49308   1.05639   0.46958
Te    3.42474   7.97406   2.36971   0.07354  -0.73703  -0.15198
Te    3.86360  11.34122   3.29738  -0.26624   0.52186   0.15936
Ge    0.08482   1.47186   0.86666   0.68485   0.14951  -0.97682
Ge    5.89378   3.52460   2.65538  -0.15976  -1.85555  -1.19665
Ge    8.93265   4.51213  10.56627   2.92447   1.46032   0.24463
Ge    8.04579   8.81982   0.50482   0.40552   0.05856  -0.36593
Ge    7.51677  12.54254   9.13320  -0.47752   0.96449  -0.15207
Ge   11.90910   6.58566   9.18735  -0.79780   0.83175   0.94003
Ge    3.49346   3.52872   6.74549  -0.10808  -0.31383   0.46128
Sb    9.69907   9.59435   4.14681  -0.77661  -1.02510  -0.47956
Te    0.52143   4.21463   5.16120  -0.06639  -0.32114   0.63489
Te    7.20251  12.96128   1.82974  -0.81111  -0.70352  -0.60576
Ge    6.35151   9.57647   9.82130  -1.41752   0.18994  -0.75569
Ge    5.13519   5.54420   3.57097  -0.02748   1.93587   1.00039
Ge    1.02647  12.48565   3.10964   1.00841  -0.09858   0.71159
Ge    3.12912   1.73113   0.81746  -0.70184   0.30611   0.59319
Ge    8.19992   6.02145   3.19370  -1.13968   0.02216   0.57130
Ge   11.33390   1.81519   2.52134  -0.59201   1.18452   0.11086
Ge    5.87033  11.50039  12.97662   1.95413   2.30527  -1.01421
Sb    6.10085   6.72044   9.34331   1.13715  -0.12240   0.01260
Te    3.34012   7.28272   5.78009   0.29892   0.04192   0.11782
Te    7.80717   4.81194   5.06949   0.27298  -0.44636   0.58178
Ge   11.63530   3.85558  10.83310  -1.32076  -1.41897  -1.32476
Ge    0.11942   1.33258   6.35390  -1.25353  -0.41247   0.05550
Ge    9.71393   1.14406   0.08059  -0.11599   0.70299   1.25588
Ge    2.51730   1.48100   5.52550   1.30179  -0.57607   0.01897
Ge    6.80595   1.54154   8.63637   0.50433  -0.86378  -0.18504
Ge    8.11529  11.28559   5.71250   0.61285  -1.08425   0.39092
Ge    8.98443  11.95074  11.74299  -0.36263  -0.72412  -0.10865
Sb   12.11384  12.32194   8.68679  -0.32993  -0.08291  -0.04316
Te    2.39743  11.69000   0.70503  -1.39329   0.14651  -1.27831
Te    9.43444   1.22090   6.25443  -0.90514   0.16431   0.63425
    80
config_type=liqu Lattice="   13.07380   0.00000   0.00000   0.00000  13.07380   0.00000   0.00000   0.00000  13.07380"    Properties=species:S:1:pos:R:3:forces:R:3 energy=-10703.4225 pbc="T T T"
Ge   11.00540   0.97136  11.17894   1.30079  -0.75632  -1.07727
Ge    2.08857   8.74918  10.51780  -0.51160   1.80258   0.04717
Ge    1.63099  11.25827  10.61454  -0.44490   0.10544   0.86621
Ge    8.82688   9.83507  11.07930  -0.14578  -0.51897   1.06101
Ge    5.77407   3.26955   5.96903  -0.06828  -0.41191   0.38400
Ge   11.96713  12.98943   0.57001  -0.62672  -0.00666  -0.23243
Ge   11.91103   6.85937  12.29689   0.55615   3.20124   0.05182
Sb    4.14688   8.62706  12.32169   0.21732   1.54341   0.15191
Te    1.53084   4.63066   2.24726   0.09002   0.30085  -0.36294
Te   10.51566  10.02314  12.70231   1.31494  -1.22446   0.65039
Ge    1.33536   0.33513  11.52449   0.19249  -0.76974  -0.60712
Ge   12.41815   7.04879   4.94858  -0.40988   0.90028   0.78429
Ge    6.41893   9.61903   7.90488   0.36541  -0.41144  -1.91870
Ge   12.25453   9.40228  10.05531   0.09856   0.10130  -0.60229
Ge    9.23452   8.85456   8.86008  -0.21537   1.66502  -0.61454
Ge    8.97565   3.78260   2.72951   0.65626   0.10073   0.21565
Ge    1.30396  10.48917   2.12407  -0.72552  -0.06551  -0.03150
Sb   12.84119   7.57269   8.31347   0.14225   0.28743  -0.88604
Te   10.58187  12.79450   4.39129  -0.50576  -0.98853   0.97088
Te    3.11204   0.71774   8.71034   0.22676   0.61624   0.07718
Ge    6.66688   9.33736   4.61127   1.13329  -0.83783   0.23149
Ge    5.47576   9.88611   1.77226  -0.45035   0.23101  -0.03142
Ge    1.35528   1.76802   9.46884  -0.41908  -0.43756  -0.70842
Ge    3.66640   6.45427   8.22188   0.19042  -0.78731  -0.77140
Ge    7.48206   3.54270   0.42655  -0.21851  -1.42871   0.31532
Ge    2.23708  11.00416   5.70963  -0.74146  -0.16789   0.66961
Ge    4.25930   6.04045  11.12552   0.72797  -1.40029   0.45512
Sb    3.33222  10.49082   9.11710  -0.66511  -0.92787  -0.65248
Te    1.03245   6.19214  12.10026   0.74737   0.37848   0.38338
Te   11.16823   9.86478   6.43443  -0.08710   0.68602  -0.13672
Ge    8.08243   1.48865   5.15231  -0.55004   0.13632   0.29735
Ge    0.83751   5.31788  10.06573   1.37441  -0.29418  -0.57003
Ge    9.82032  11.10868  10.30577   1.33601   0.77262  -0.17012
Ge   10.50000   7.14318   6.24705   0.51083  -0.75613  -1.18032
Ge    0.20286   7.19123   2.43387   0.28493   0.10739  -0.31195
Ge    9.62176   4.53932   0.09488  -1.69696  -1.99930   0.44288
Ge    7.08224   6.35608  12.55817  -0.19330   1.07596  -0.47793
Sb    6.49933   0.80815  12.18596  -0.07152  -0.03605   0.05510
Te   10.10504   5.68933   2.79079   0.52680   0.09598   0.36395
Te    3.29873   2.81705  11.96201  -0.21615   0.32130  -0.54320
Ge    6.67260   7.09976   6.55544  -0.53083   0.61943  -0.40675
Ge   11.79463   4.21111   7.52816  -0.21015   0.63430   0.01919
Ge    4.67394   5.27392   1.13071   0.05678   0.10709   0.21915
Ge    9.67494   7.12511   8.59485  -1.81464  -2.07176   0.79690
Ge    6.84376   3.49112  10.09840  -1.56660   0.60560  -0.24570
Ge   12.67408   4.47323  13.01037   0.51573  -0.79643   0.76395
Ge    4.15845   1.04582   2.96016   0.61650  -0.17710   0.77346
Sb    5.75508  12.55138   6.05094   0.54471   0.93796   0.65086
Te    3.52192   8.03647   2.33604  -0.65422  -1.43114  -0.12400
Te    3.90358  11.30715   3.29883  -0.41937   1.25212  -0.36114
Ge    0.13202   1.49484   0.50316  -1.07617   1.03845   0.13624
Ge    5.93803   3.55034   2.72205  -0.82305  -1.28581  -0.97495
Ge    8.96631   4.41035  10.40593   1.26515   0.87139  -0.04283
Ge    7.95930   8.71797   0.52355   1.59239   0.50733  -1.30920
Ge    7.53618  12.50401   9.22438  -0.12686   1.12606  -0.23460
Ge   11.82154   6.52235   9.27336  -0.11335   1.46789   0.36885
Ge    3.42245   3.36289   6.88470   0.23923   0.48140   0.26050
Sb    9.66356   9.48054   4.15130  -0.46072  -0.63593  -0.28395
Te    0.55478   4.26088   5.13349   0.19964  -0.69153   0.52566
Te    7.11611  12.89088   1.80335  -0.50559  -0.56392  -0.67470
Ge    6.34501   9.66654   9.72311  -1.25190   0.03532   1.22325
Ge    5.09398   5.60417   3.73628  -0.01444   1.69514  -0.01376
Ge    1.01005  12.49307   3.24178   1.54393   0.02886   0.19320
Ge    2.87975   1.78925   0.83687   0.51593   0.37045   0.81013
Ge    8.12450   6.00798   3.14400  -0.83627  -0.52353   1.21776
Ge   11.26675   1.84215   2.43729   0.06742   1.07629  -0.81153
Ge    5.93042  11.58436  12.83480   0.96502   0.57927  -0.36414
Sb    6.07747   6.79137   9.42428   1.28462  -0.16210   0.12555
Te    3.35215   7.29355   5.78754   0.05930   0.07853  -0.04790
Te    7.75840   4.74995   5.10379   0.25412   0.13852   0.67776
Ge   11.55275   3.85668  10.84616  -1.03164  -2.02754  -0.86487
Ge   13.04464   1.15075   6.52608   0.72901   0.22585  -1.15670
Ge    9.62200   1.17252  13.03586  -0.28218   1.13298   1.84718
Ge    2.66719   1.44980   5.42848  -0.34319  -0.61902  -0.35537
Ge    6.76143   1.41988   8.62688   0.67680  -0.87340  -0.41826
Ge    8.18145  11.18116   5.75758  -0.05515  -0.51615   0.42405
Ge    8.94807  11.97432  11.77402  -0.31154  -1.43204  -0.04606
Sb   12.14930  12.30233   8.60194  -0.61328  -0.72047   0.99533
Te    2.34008  11.82334   0.55741  -0.46033  -0.74879  -0.47338
Te    9.33092   1.25812   6.36044  -0.65570   0.06361   0.59133
    80
config_type=liqu Lattice="   13.07380   0.00000   0.00000   0.00000  13.07380   0.00000   0.00000   0.00000  13.07380"    Properties=species:S:1:pos:R:3:forces:R:3 energy=-10703.4464 pbc="T T T"
Ge   10.97105   0.91456  11.13352   0.88464  -0.35952  -0.50017
Ge    2.01577   8.73506  10.64135  -0.04097   1.65604  -0.67836
Ge    1.57093  11.20849  10.63909   0.14754   0.27131   0.61686
Ge    8.88792   9.81368  11.00668  -0.43019  -0.54879   0.48752
Ge    5.84726   3.38692   5.94557  -0.40668  -1.15626   0.67493
Ge   12.19885  13.01756   0.60156  -0.83146  -0.78098   0.13217
Ge   11.99724   7.03827  12.29290  -0.37683   1.34555   0.54213
Sb    4.04715   8.71324  12.35938   0.14974   0.66527   0.19035
Te    1.58672   4.64171   2.09907  -0.23884   0.45118   0.27002
Te   10.53363   9.96633  12.66705   1.30274  -0.41959   0.82880
Ge    1.20950   0.30271  11.49031   1.92862  -2.30229  -2.56654
Ge   12.38259   7.02756   4.83956  -0.19058   0.49931   1.33868
Ge    6.45439   9.43630   7.93357   0.06693   0.21937  -2.13689
Ge   12.32343   9.37687  10.01814  -0.21933  -0.07818  -0.60776
Ge    9.11506   8.76414   8.73846   0.07253   1.87272  -0.36782
Ge    9.00227   3.86164   2.74065   0.44376   0.17028   0.07950
Ge    1.33299  10.48948   2.27915  -0.59161   0.21490  -0.25613
Sb   12.82608   7.49557   8.26750  -0.06117   0.04935  -0.30950
Te   10.57750  12.77766   4.29417  -0.70557  -1.04630   0.67551
Te    3.14153   0.75227   8.70457   0.27219   0.40792   0.66972
Ge    6.60145   9.42755   4.60176   1.77849  -1.16963   0.45994
Ge    5.57604   9.90778   1.94014  -0.13044   1.65565  -0.77296
Ge    1.23259   1.68220   9.49482  -0.54824   0.13348  -1.12194
Ge    3.74087   6.47412   8.21459  -0.49311  -0.76101  -0.54681
Ge    7.61330   3.57232   0.53967  -0.66453  -1.77927   0.18039
Ge    2.37817  10.98748   5.83175  -1.08443  -0.22726   0.84531
Ge    4.36366   5.97668  11.01832   0.64039  -0.73901   0.93644
Sb    3.38196  10.54649   9.17430  -0.72612  -1.08716  -0.46202
Te    1.11328   6.18630  12.10256   0.62249   0.18320   0.39246
Te   11.26808   9.96868   6.46793  -0.05074   0.11737  -0.02580
Ge    8.18552   1.48599   5.10429  -0.59645  -0.17914   0.27571
Ge    0.84655   5.26366  10.16742   0.76644   0.02806  -0.78440
Ge    9.96250  11.13128  10.38511   0.52142   0.19783  -0.72584
Ge   10.52170   7.03565   6.15264   0.31908  -0.22009  -0.31466
Ge    0.30080   7.32187   2.53813   0.34851   0.26415  -0.85602
Ge    9.61550   4.53603  12.92492  -0.27178  -0.17997   0.64181
Ge    7.26016   6.33168  12.70484  -0.79338   0.74568  -1.07405
Sb    6.57569   0.86210  12.16332  -0.34974   0.28552  -0.25635
Te   10.03917   5.67734   2.96034   0.23655   0.02050  -0.37989
Te    3.27110   2.77308  11.98971  -0.10613   0.34115  -0.21914
Ge    6.58511   7.21233   6.64967  -0.07078   0.07096  -0.88992
Ge   11.94402   4.20395   7.37751  -0.25105   0.61579   0.02818
Ge    4.58382   5.28917   1.09788   0.77606   0.05270   0.11254
Ge    9.57467   7.03629   8.62421  -1.31574  -1.30184   0.29403
Ge    6.58181   3.52831   9.98843  -0.11241   0.85637   0.09521
Ge   12.76685   4.58298  13.04668  -0.48264  -0.85128   0.47288
Ge    4.10210   1.08782   2.94588   0.69088   0.00760   0.01145
Sb    5.69774  12.59208   6.14312   0.68218   0.56142   0.50440
Te    3.59969   8.05643   2.29811  -1.36696  -1.86736  -0.23362
Te    3.92979  11.31091   3.29004  -0.93113   1.94556  -0.63376
Ge    0.12209   1.57555   0.15109  -2.62015   2.17904   2.15178
Ge    5.94025   3.50838   2.73806  -1.15307  -0.48838  -0.59088
Ge    9.06669   4.35383  10.24383  -0.95448  -0.05236  -0.09991
Ge    7.95367   8.64282   0.47906   2.02947   1.03208  -0.91460
Ge    7.55031  12.52283   9.30517   0.46712   0.86845  -0.03520
Ge   11.72745   6.53359   9.38014   0.62957   1.38486  -0.03865
Ge    3.36053   3.21997   7.03760   0.03143   0.91211  -0.16076
Sb    9.61312   9.34519   4.14644  -0.17809  -0.49409  -0.23056
Te    0.59360   4.28771   5.12184   0.16747  -0.55680   0.43216
Te    7.01392  12.80323   1.75617  -0.18441  -0.23064  -0.67515
Ge    6.27251   9.76039   9.68478  -0.84903   0.13361   2.09278
Ge    5.05251   5.75423   3.90214   0.16597   1.23009  -0.89685
Ge    1.07327  12.50171   3.38729   1.50172   0.01604   0.19836
Ge    2.65254   1.86498   0.89963   0.95773  -0.09398   0.91246
Ge    8.00403   5.96812   3.15534  -0.51612  -0.70388   1.19276
Ge   11.20079   1.92426   2.31429   0.20943   0.53757  -0.78116
Ge    6.04182  11.70381  12.67233  -0.00643  -0.45715   0.26867
Sb    6.09495   6.85686   9.50899   1.38795  -0.34587   0.03221
Te    3.36556   7.30713   5.79360  -0.30095   0.18239  -0.21899
Te    7.71716   4.69038   5.15892   0.37844   0.37603   0.80102
Ge   11.41836   3.75507  10.81288   0.08939  -1.70251  -0.52046
Ge   12.92815   0.98537   6.63073   1.40083   1.73221  -3.50180
Ge    9.51732   1.25632  13.00896   0.11548   0.48577   1.27542
Ge    2.80532   1.38801   5.31600  -0.73237  -0.22824   0.10816
Ge    6.75135   1.25368   8.59746   0.65702  -0.38761  -0.13640
Ge    8.24800  11.04831   5.82496  -0.15434  -0.07049   0.38947
Ge    8.89685  11.92712  11.80412   0.07782  -1.09221   0.21914
Sb   12.16539  12.25665   8.55231  -0.87390  -2.12003   2.96115
Te    2.26822  11.93643   0.39399   0.32200  -1.04601   0.14133
Te    9.20732   1.29793   6.48526  -0.27922   0.14627   0.58966
    80
config_type=liqu Lattice="   13.07380   0.00000   0.00000   0.00000  13.07380   0.00000   0.00000   0.00000  13.07380"    Properties=species:S:1:pos:R:3:forces:R:3 energy=-10704.6513 pbc="T T T"
Ge   10.98301   0.84073  11.06369   0.13489   0.08336   0.27411
Ge    1.94323   8.80714  10.72674   0.56834   1.26958  -1.22900
Ge    1.52116  11.17448  10.69691   0.87383   0.45003   0.64555
Ge    8.92664   9.76511  10.96247  -0.34361  -0.41983   0.06140
Ge    5.89749   3.44312   5.95403  -0.69663  -1.32859   0.20047
Ge   12.38427  13.00945   0.63736  -0.26898  -0.39869   0.14772
Ge   12.06656   7.28306  12.31403  -0.35790  -0.71305   0.34266
Sb    3.95523   8.81823  12.40159   0.15047  -0.02007   0.04367
Te    1.63336   4.66577   1.96380  -0.70505   0.56972   1.04964
Te   10.58889   9.89954  12.65683   0.93470   0.73280   0.81458
Ge    1.17563   0.15927  11.34397   1.29615  -2.18199  -0.82834
Ge   12.33897   7.03385   4.80095   0.25065   0.28948   1.30633
Ge    6.49320   9.27701   7.86368  -0.10943   2.31284   0.33389
Ge   12.37839   9.34765   9.95019  -0.64162  -0.34440  -0.64826
Ge    9.00370   8.76757   8.60241   0.57685   0.63550   0.12446
Ge    9.04889   3.94614   2.75628  -0.24559  -0.06883   0.09005
Ge    1.33099  10.49938   2.41829  -0.26601   0.16859  -0.07714
Sb   12.81020   7.42307   8.21273  -0.02688   0.03483   0.06049
Te   10.55420  12.73086   4.21781  -0.23895  -0.72966  -0.23423
Te    3.17810   0.79616   8.71902   0.26768  -0.44475   1.41487
Ge    6.62689   9.45624   4.61708   1.60956  -1.05449   0.76956
Ge    5.66731  10.00608   2.06449   0.34667   1.06681  -1.02046
Ge    1.08599   1.60644   9.46201  -0.45843   0.77656  -1.33620
Ge    3.79072   6.45490   8.18067  -0.59202  -0.43730   0.05289
Ge    7.70581   3.51395   0.66094  -1.16940  -0.93815   0.45591
Ge    2.46163  10.96017   5.99275  -0.77963  -0.10429   0.63020
Ge    4.49711   5.87398  10.96239   0.20325  -0.48930   1.23058
Sb    3.40804  10.56742   9.21558  -0.54362  -0.99655  -0.24682
Te    1.20989   6.18628  12.11621   0.36172  -0.01070   0.28567
Te   11.36345  10.07287   6.50000  -0.04363  -0.45853   0.11106
Ge    8.25458   1.47478   5.07192  -0.61889  -0.31607   0.15103
Ge    0.89484   5.21176  10.22613   0.01761   0.24099  -0.79972
Ge   10.12810  11.16427  10.42720  -0.27701  -0.17685  -0.62124
Ge   10.55780   6.91846   6.04266  -0.10070   0.01898   0.21359
Ge    0.41367   7.46125   2.59687   0.23809   0.19302  -0.86957
Ge    9.59162   4.51883  12.72261   0.55783   0.88039   0.97253
Ge    7.39225   6.33897  12.79090  -1.20946  -1.03985  -1.62887
Sb    6.63913   0.92285  12.13293  -0.57528   0.34390  -0.60217
Te    9.98302   5.66676   3.11391   0.27391   0.12685  -0.93677
Te    3.24031   2.74038  12.00973  -0.28855   0.28762   0.02027
Ge    6.49670   7.31900   6.69181   0.36647  -1.78491  -1.93495
Ge   12.07722   4.22818   7.23286  -0.10113   0.47461   0.10381
Ge    4.53748   5.30612   1.07084   1.56230  -0.08279  -0.20571
Ge    9.40954   6.89055   8.66587  -0.63998   1.21297  -0.48477
Ge    6.31650   3.60637   9.88431   0.17744   0.44594  -0.05037
Ge   12.83165   4.64959   0.03373  -1.42271   0.16339   0.40272
Ge    4.08249   1.12812   2.93279   0.48300   0.01756  -0.71841
Sb    5.66292  12.64885   6.24665   0.60013   0.03479  -0.19471
Te    3.63684   8.02287   2.25429  -1.21995  -1.36756  -0.37011
Te    3.92924  11.37015   3.26383  -0.89431   1.74863  -0.48545
Ge   13.06290   1.75260  12.98038  -1.38075   0.28789   1.48606
Ge    5.88510   3.44019   2.72120  -0.77219  -0.11311  -0.48927
Ge    9.11878   4.29392  10.08268  -2.04971  -1.29331   0.12152
Ge    8.05051   8.62733   0.39403   1.63660   2.08141   0.59460
Ge    7.58696  12.58476   9.38254   0.79018   0.17564   0.29763
Ge   11.66584   6.61540   9.48373   0.68555   0.86745  -0.00831
Ge    3.30187   3.12955   7.17633  -0.21979   1.39615  -0.82625
Sb    9.55786   9.19899   4.13487  -0.13640  -0.17976  -0.09391
Te    0.63606   4.29768   5.12345   0.01210  -0.31412   0.30884
Te    6.90922  12.71166   1.69110   0.16108   0.22647  -0.32093
Ge    6.15645   9.85732   9.74599  -0.70859   0.04589   0.83471
Ge    5.02036   5.96396   4.02113   0.18415   0.72379  -0.75346
Ge    1.20896  12.51147   3.53934   0.69394   0.10506   0.25412
Ge    2.47818   1.93277   1.00400   0.53398  -0.66235   0.15955
Ge    7.85952   5.89522   3.22566  -0.27011  -0.26719   0.52708
Ge   11.14856   2.03221   2.15516   0.43209   0.02364  -0.48661
Ge    6.15155  11.79930  12.52670  -0.54529  -0.65186   0.34119
Sb    6.15372   6.91081   9.59146   1.03010  -0.16915  -0.19192
Te    3.36878   7.32539   5.79298  -0.81531   0.18252  -0.40019
Te    7.68930   4.64454   5.23640   0.76518   0.80066   0.96367
Ge   11.29271   3.56905  10.75111   1.19869  -1.07224  -0.69278
Ge   12.88330   0.90492   6.56675   0.98583   1.28112  -2.62024
Ge    9.42221   1.36192  13.04989   0.70714  -0.43581   0.59536
Ge    2.90304   1.31483   5.21364  -0.60674  -0.07738   0.81405
Ge    6.77558   1.07363   8.56336   0.45449   0.49885   0.39479
Ge    8.30492  10.91427   5.90918  -0.10205   0.14713   0.01081
Ge    8.85093  11.82507  11.84371   0.45722  -0.48282   0.22373
Sb   12.15483  12.15359   8.58534  -0.71449  -1.29251   1.40127
Te    2.20626  12.01636   0.23889   0.45369  -0.77340   0.41946
Te    9.07898   1.34098   6.62323   0.12399   0.27195   0.34787
    80
config_type=liqu Lattice="   13.07380   0.00000   0.00000   0.00000  13.07380   0.00000   0.00000   0.00000  13.07380"    Properties=species:S:1:pos:R:3 energy=-10698.9650 pbc="T T T"
Ge   13.05991  11.75203   7.13942
Ge    7.29127  10.88899  11.32109
Ge    2.81312   3.64300  11.06384
Ge   10.15961   6.50244  12.31767
Ge    6.29711   3.24479   5.98514
Ge   10.66110   0.50911   2.27174
Ge   10.31697  12.56861  12.02558
Sb    2.18140   6.33749   1.93712
Te    0.70670   6.28272  10.70353
Te    9.54890  11.05150   6.95175
Ge    0.08291   0.96005  11.36010
Ge    1.90542   0.78996   0.46070
Ge    6.76988   6.87777  10.61431
Ge    0.69887  12.28948   9.81052
Ge   11.25772  10.68646  11.51849
Ge   11.80896   3.84657   5.41228
Ge    3.30905  11.01283   6.90841
Sb   10.66501   9.08500   7.32766
Te    1.25370  11.84410   5.03264
Te    2.34154   3.74429  11.85703
Ge   11.77709   8.64425  10.69600
Ge    5.50187  10.50794   6.06113
Ge   10.27102   2.99863   6.13196
Ge    4.60049  10.73747   9.59680
Ge    6.96724   5.45548   3.61094
Ge    4.37509   0.30322   3.21075
Ge    6.38979   2.15775  10.28492
Sb    3.71192   7.70779   0.11742
Te    1.88399   1.22469   7.20781
Te    1.71967   8.63612   5.17715
Ge    7.58405  12.21177   3.75967
Ge    9.52577   7.95284  12.04078
Ge   10.40227   9.12652   2.00971
Ge   10.75780   7.01308   6.93084
Ge    5.04243  12.90176   6.01125
Ge   12.86579   4.34359   6.42294
Ge    2.73412   2.12358   2.83289
Sb    7.99968   2.35462  12.38476
Te   12.51372   7.61802   2.78447
Te    5.42218  12.34477   9.61478
Ge    4.20763   5.73248  10.34791
Ge   12.32452   0.22251   4.41450
Ge    0.33912   4.65370  12.81082
Ge    0.99994  10.04056   7.65268
Ge    4.20180   4.81595   7.95669
Ge   11.94062   3.27681   2.04974
Ge   12.91855  12.41865  12.39114
Sb    4.88861   8.37970   8.32263
Te    3.98913   8.98988   2.47842
Te    8.87820   3.42815   0.93466
Ge   10.99365   5.34134  10.27800
Ge   12.99678   1.71848   3.82769
Ge    6.16133  12.47349   8.31179
Ge    9.36025   7.40699   3.89572
Ge    8.09635   4.98497   8.90829
Ge    1.08883  10.28470  10.91440
Ge    2.77250   1.11609   7.91697
Sb    8.10531   9.08022   4.70438
Te   11.20634   4.86664   3.54217
Te    4.95193   1.10989  12.58431
Ge    0.61121   0.70138  12.42131
Ge    0.61024   7.54266   6.95670
Ge   12.54757   2.18286   7.77982
Ge    0.24922   7.46276  12.40333
Ge    9.46367   5.70200   3.17328
Ge    8.43015   1.27710   3.59012
Ge   10.25604   0.21107  10.06567
Sb    6.88011   4.70366  12.51052
Te    3.07529   4.57857   3.59604
Te    5.25596   2.81790   6.69288
Ge    6.62799   5.68097   6.08654
Ge   10.50092   0.57064   6.10120
Ge    6.30244  10.69526  13.07358
Ge    7.10461  12.10791   5.25495
Ge    6.16415   2.58946   4.08359
Ge    7.65162   8.28003   7.11540
Ge    7.82420   8.21249  11.89476
Sb   11.38072  12.81577   8.77378
Te    0.70219  10.23735   1.05922
Te    7.82365   2.51884   6.23171
    80
config_type=liqu Lattice="   13.07380   0.00000   0.00000   0.00000  13.07380   0.00000   0.00000   0.00000  13.07380"    Properties=species:S:1:pos:R:3 energy=-10698.5317 pbc="T T T"
Ge    0.01719  11.59374   7.16435
Ge    7.24695  10.89131  11.38068
Ge    2.76142   3.64631  10.96461
Ge   10.06545   6.45469  12.04976
Ge    6.19614   3.04795   5.88754
Ge   10.66379   0.63811   2.44855
Ge   10.18999  12.73500  12.09718
Sb    2.11770   6.32174   1.85419
Te    0.74743   6.31430  10.67907
Te    9.50038  11.10362   6.85902
Ge    0.15360   0.95076  11.33789
Ge    1.66558   0.78521   0.56289
Ge    6.70423   6.95667  10.54739
Ge    0.77442  12.24098   9.66172
Ge   11.26640  10.75759  11.47248
Ge   11.86041   3.81957   5.47442
Ge    3.24934  11.02772   6.62881
Sb   10.66005   9.08687   7.19932
Te    1.25178  11.88798   5.11070
Te    2.37213   3.74492  11.91248
Ge   11.86407   8.51095  10.69109
Ge    5.47094  10.49798   6.22663
Ge   10.28672   3.07103   6.10342
Ge    4.69024  10.74972   9.67721
Ge    6.99024   5.39094   3.56088
Ge    4.62912   0.38469   3.25397
Ge    6.39121   2.21646  10.18889
Sb    3.71151   7.63385   0.04668
Te    1.89976   1.32353   7.31563
Te    1.77147   8.57641   5.25987
Ge    7.59425  12.17734   3.89902
Ge    9.49337   7.85200  12.15727
Ge   10.50601   9.10163   2.11796
Ge   10.77225   6.77499   6.98269
Ge    4.94613  13.00524   6.02998
Ge   12.91321   4.26399   6.42415
Ge    2.75863   2.14813   3.06297
Sb    8.00576   2.43038  12.30486
Te   12.46276   7.58651   2.80196
Te    5.55094  12.40350   9.60905
Ge    4.23493   5.66160  10.43989
Ge   12.39677   0.29451   4.35914
Ge    0.33090   4.53944  12.93384
Ge    1.03376   9.92847   7.60013
Ge    4.14876   4.80396   7.94153
Ge   12.06306   3.22200   2.17511
Ge    0.01757  12.38497  12.42135
Sb    4.80075   8.47647   8.21127
Te    3.89664   8.89543   2.43723
Te    8.87430   3.40370   0.89082
Ge   10.96183   5.34523  10.18268
Ge   13.02661   1.74435   3.82624
Ge    6.04338  12.58765   8.39406
Ge    9.29551   7.53306   3.97150
Ge    8.09327   5.04049   8.80648
Ge    1.15036  10.15033  10.92432
Ge    2.56921   1.26354   7.96269
Sb    8.04210   9.10545   4.66489
Te   11.29912   4.90575   3.60671
Te    5.03053   1.11644  12.58794
Ge    0.61368   0.67546  12.44704
Ge    0.69880   7.43251   7.04264
Ge   12.53309   2.30967   7.67569
Ge    0.08958   7.39422  12.50608
Ge    9.45343   5.65871   3.07625
Ge    8.44990   1.27126   3.65020
Ge   10.18922   0.02769   9.98259
Sb    6.92623   4.55184  12.62261
Te    3.10859   4.53651   3.48501
Te    5.16737   2.81705   6.75239
Ge    6.67863   5.76429   6.19821
Ge   10.56128   0.53735   5.93167
Ge    6.22639  10.64295  13.06952
Ge    7.07935  12.22124   5.33197
Ge    6.23560   2.83810   4.15310
Ge    7.58349   8.41455   7.19711
Ge    7.76417   8.22995  11.95530
Sb   11.44144  12.88838   8.72295
Te    0.65397  10.26222   0.95444
Te    7.89122   2.46914   6.20502
    80
config_type=liqu Lattice="   13.07380   0.00000   0.00000   0.00000  13.07380   0.00000   0.00000   0.00000  13.07380"    Properties=species:S:1:pos:R:3 energy=-10699.3559 pbc="T T T"
Ge    0.03885  11.44840   7.15741
Ge    7.24390  10.89170  11.43633
Ge    2.66493   3.63370  10.87286
Ge    9.97336   6.38980  11.80665
Ge    6.12955   3.05004   5.73627
Ge   10.58616   0.78982   2.58128
Ge   10.08777  12.86742  12.19291
Sb    2.04037   6.25469   1.80211
Te    0.74755   6.32585  10.69320
Te    9.44538  11.16694   6.81075
Ge    0.17784   0.97329  11.32146
Ge    1.57734   0.82802   0.52601
Ge    6.69645   6.94847  10.54774
Ge    0.86908  12.22020   9.46638
Ge   11.29494  10.84326  11.43901
Ge   11.89508   3.75705   5.42194
Ge    3.15198  11.05953   6.36384
Sb   10.67779   9.07103   7.06835
Te    1.25834  11.93531   5.19402
Te    2.33215   3.72691  11.96174
Ge   11.92244   8.33613  10.67154
Ge    5.46727  10.47514   6.37551
Ge   10.31403   3.10448   6.01229
Ge    4.76669  10.83216   9.70949
Ge    6.97614   5.34643   3.52063
Ge    4.93662   0.49172   3.32925
Ge    6.36942   2.23018  10.13784
Sb    3.73688   7.58480   0.01293
Te    1.93108   1.44631   7.41419
Te    1.78758   8.48170   5.30624
Ge    7.53985  12.16694   4.00900
Ge    9.42723   7.85468  12.27839
Ge   10.55592   9.10004   2.20767
Ge   10.82618   6.59049   6.92479
Ge    4.80805  12.89592   6.01891
Ge   13.04609   4.18367   6.48601
Ge    2.84004   2.19147   3.24839
Sb    8.03855   2.50608  12.20280
Te   12.41193   7.57282   2.84616
Te    5.68434  12.50179   9.61042
Ge    4.32306   5.56484  10.49639
Ge   12.51443   0.30696   4.32675
Ge    0.38498   4.42297  13.05277
Ge    1.06730   9.82659   7.61278
Ge    4.09879   4.79081   7.88277
Ge   12.22558   3.18949   2.25006
Ge    0.21934  12.35328  12.43054
Sb    4.70106   8.59086   8.08155
Te    3.84296   8.77500   2.39327
Te    8.79860   3.37965   0.86130
Ge   10.99739   5.28518  10.19671
Ge   13.04894   1.73836   3.88964
Ge    5.85682  12.76807   8.49449
Ge    9.19895   7.66986   3.96304
Ge    8.07528   5.08199   8.74955
Ge    1.18963   9.90886  10.83767
Ge    2.40784   1.37342   8.03489
Sb    7.99814   9.11567   4.62695
Te   11.37636   4.96284   3.62775
Te    5.09725   1.15235  12.63345
Ge    0.55340   0.72135  12.53419
Ge    0.76737   7.30942   7.06944
Ge   12.53151   2.45547   7.67703
Ge   13.01855   7.29350  12.56344
Ge    9.44271   5.62732   3.01879
Ge    8.46668   1.32002   3.72452
Ge   10.15778  12.89920   9.88486
Sb    6.99814   4.46909  12.74711
Te    3.09774   4.51976   3.36945
Te    5.01455   2.81568   6.77271
Ge    6.73954   5.82756   6.30368
Ge   10.62353   0.48823   5.80560
Ge    6.12574  10.54817   0.00976
Ge    7.10809  12.35786   5.32984
Ge    6.37220   3.04625   4.23709
Ge    7.53518   8.64331   7.27636
Ge    7.71159   8.25106  12.05703
Sb   11.48846  12.93563   8.68322
Te    0.54254  10.25624   0.96396