   300
 config_type=liqu Lattice="   20.31669   0.00000   0.00000   0.00000  20.31669   0.00000   0.00000   0.00000  20.31669"  Properties=species:S:1:pos:R:3:forces:R:3 energy=-40560.4373 pbc="T T T"
Ge    0.84564  19.59935   0.12233   0.11271  -0.02230   0.23576
Ge    8.56239   4.83610  12.84362  -0.12076   0.21629  -0.74383
Ge   10.49519  13.87133   9.37030   0.09690   0.25243  -0.40929
Ge   18.03707  19.26849  19.00579  -0.33504   1.18399   0.60432
Ge    9.84543  19.78566   1.44854   0.57452   0.20306   0.17842
Ge    9.03331   0.99025  10.18672  -0.15196   0.68657  -1.49032
Ge   12.34933   4.72066  16.13939  -0.27193  -0.03266  -0.29021
Ge    9.93172  12.25623  18.82265  -0.06395   2.36398  -0.41976
Ge    5.77775   2.64237  14.56332   0.48976   0.00677  -0.10211
Sb   14.83386   0.72800  17.45999   0.60332   0.52253   0.11525
Sb    1.23275   4.62324  13.23974   0.27734   0.49831  -0.36602
Ge   18.56535  17.54589  17.36399  -0.39323  -0.34600  -1.48771
Ge   11.10586  12.85357   4.79531   2.03267  -0.55526   0.36259
Ge   10.65993  18.69366   9.18538  -0.00153  -0.69992   0.50782
Ge    5.74231   4.06446  19.77139  -1.41038  -1.69233  -2.54608
Sb   16.62708   5.81644   2.28163   0.76010  -0.00273  -0.05404
Sb    2.98810   6.68393   4.89647  -1.77069   1.17886  -2.00434
Sb   10.19584   4.08108   2.94991   0.31090  -0.00533   0.34591
Ge   10.91045   3.71624   7.12704   0.24909  -0.34133   0.77475
Ge    7.19159  11.14103  12.11819   0.08312  -0.11628  -0.23989
Ge   12.49161   1.43274  18.27007  -1.29099   1.05159   0.83096
Ge   15.13722   8.05135  10.86354  -0.94991   0.02068  -0.84434
Ge   15.42193  13.80520   9.62913  -0.58225  -0.67498  -0.80692
Ge   18.23198   5.85787  12.61731   0.55758  -1.05726   0.41972
Sb    1.65026  11.25098   9.32205  -0.18330   2.85848  -1.26953
Ge   15.76361   7.98431   7.89712  -0.22240   1.34081   1.42333
Sb   16.62005   1.70281  14.66805  -0.56990   0.51829  -0.82946
Ge   18.31152   8.28505   9.35803  -0.34840   0.33724   0.24903
Ge   12.49615   2.05294  14.89438   1.73067   0.24701  -1.33544
Sb   16.43839  19.12871  15.90356   0.57519  -0.61558  -0.22452
Ge   18.97004  10.73113   6.35233   0.62996  -0.35514  -0.33409
Ge   13.40797   4.36408   9.14359  -0.69614   0.06168   0.09824
Ge    2.74025  15.57419  20.12309   0.25324   0.22918   0.20626
Ge   11.12364  11.30658   0.57665   1.09230   0.03182   1.03457
Sb   12.29921  16.12415   6.37866   0.75221  -0.60235   0.12284
Te   10.38333   7.53300   0.36101   0.63535  -0.00096  -0.07946
Sb   10.80710   9.22368   8.87712  -0.07491  -0.33085  -0.22352
Sb    1.43274   2.03746  16.54340   0.69709  -0.31040   0.69800
Ge   19.26111   3.10864   9.98833  -0.96268  -0.18385  -0.05628
Ge   13.86974   9.94830   8.63357   0.11132   0.32346  -0.23722
Ge    7.35808  13.00960  15.45027  -0.65593  -0.57991  -0.95246
Ge   15.59099   8.81463  17.18233   0.16036   0.23894   0.29825
Ge    1.41779   5.33107   0.47823   0.23833   0.24178  -0.14624
Ge    4.13094  10.18152   9.44799  -0.46312  -0.72634  -0.14369
Ge   17.57050  19.09620   9.00068   1.56496  -1.62550   1.37916
Ge   14.81557  17.08089   9.39054   0.43496  -0.29031   0.02757
Ge   16.60923   8.38711  20.18265  -0.76322  -0.66276  -0.17740
Ge    8.56050   6.46033   9.35940   0.55740   1.17203  -0.28808
Ge    2.16271  18.22429  11.97702   0.00040  -0.09960   0.67255
Sb   16.18885   0.35329   7.76266  -1.11846   1.35067  -1.88107
Sb   10.82503   6.07618  14.21961   0.46366  -0.33680  -1.51346
Ge    7.07331  10.68505   4.25939  -0.43652   0.58858  -0.26355
Sb   19.61758  16.87770   4.83027  -0.13173   0.90634  -0.10885
Ge   14.90608   5.56636   0.20301   0.19831  -0.53278  -0.01968
Sb   10.24069  12.14126  12.93241   0.36510   0.55624  -1.22262
Ge    3.25527   4.72306  18.22706  -0.32813   0.41943  -0.07916
Ge   17.90202  11.12987   3.88976  -0.36673  -0.51684   0.37339
Ge    5.38401  15.50031  17.60631   0.01603   0.38565   0.26452
Ge   12.22437  17.89059  15.44674   0.72414   0.08891  -0.43172
Ge   17.66543   0.86793  11.01555   0.40680   0.13355   0.36241
Ge    4.88665   1.39253   2.31881  -0.68496  -0.78507   0.37911
Sb    9.88119  17.60849   5.67802  -0.18119   0.08639  -0.35005
Ge   16.16690   5.45279   5.06749  -0.45853  -0.38355  -0.19187
Ge   12.49085  18.04515   2.52563   0.96471   0.34153   0.26137
Ge    7.29913  14.90470   2.36830   0.08311   0.42579  -0.17522
Ge    6.24080   8.94113  16.24343  -0.32889   0.00041   0.49145
Ge   14.23535  14.14345   4.18887  -0.27792   0.62391  -1.28719
Sb    0.01078  11.72716  11.89511   1.97129   0.64255   0.38655
Ge   15.76466  12.32891   1.77783  -0.65819   0.39824  -0.05257
Ge    6.48392   5.47854   1.04857   1.11387   2.13875   2.00233
Ge   10.07308   9.93146  19.08645  -0.56847  -2.08753  -0.40340
Ge    9.93160  18.56023  16.03741  -0.99235  -0.77838   0.41061
Ge    8.48251  13.53299  10.96935   0.25909  -0.20387  -0.40278
Ge   17.86905   0.95998  17.09524   0.45034   0.66054   0.63842
Ge    0.91017   5.94617  10.10656  -0.24183  -0.27625   0.04621
Ge   20.20598   8.88047  12.09110  -0.03285  -0.57459   0.57175
Ge    2.53764  19.57134   2.56786  -0.20317   0.44423  -0.24802
Ge   15.34181  17.01801   3.31416  -0.64361  -0.59314  -0.25613
Sb   16.78232  15.62625  10.95535   0.34616   0.47214   0.09331
Ge   13.68358  18.95482   7.85121  -0.45760   0.07509   0.89361
Ge    0.23001  15.61728   6.99757  -0.25944  -0.44797   0.44790
Ge    5.50173  14.60534  20.22997  -0.12400  -0.57940   0.13471
Ge    1.67242  13.92132   3.99623  -0.87808   0.27182   1.31933
Ge   17.44568  11.85813  15.72970   0.30717  -0.38026   0.49840
Ge   11.12546   8.42660   2.91056   1.40526  -1.62529  -0.83064
Sb   11.99656   0.80475   3.92374  -0.34088  -0.36797  -0.60854
Ge   13.51244   5.82471   2.55841   0.03227  -0.38032  -0.40785
Ge   17.89890  10.99892  11.61052   0.30668  -1.17448   0.05320
Sb   12.27329   4.07805  19.80196   0.30301  -0.79794   0.27719
Sb   18.01505   4.94587   7.14894   0.01906   0.52709  -0.26171
Sb   13.05673  17.41449  12.06935  -0.53268   0.36398  -0.76867
Ge   13.50320  12.13538  13.75462   1.10541   1.07816  -0.39607
Ge   10.30307   1.91888   0.44887   0.22146   0.43543   0.49133
Ge    6.28365   5.17653   9.49958  -0.47176  -0.72157   0.42231
Ge   18.03580  10.94124   9.06770  -0.05367   0.15962  -0.88026
Ge   12.67188  12.92922  10.58368   0.49622  -0.15308   0.35654
Ge   14.61065  15.76203   0.54316   0.40787   0.35702   0.09998
Ge    5.11930  19.07874  10.74861   0.07987  -0.81991  -0.29869
Sb   11.56334   3.05353  11.87349   0.21575   0.10827   0.34010
Sb    3.20895  18.96672   5.90437   0.21334   1.81736  -1.51521
Ge   16.30899  16.45771  18.57538  -0.25959   1.84283   0.84256
Ge   13.89574  13.18503   6.38456  -0.26479  -0.43861   0.93308
Ge    4.31316  19.94274  13.76719  -0.15882  -0.18419  -0.08046
Ge   13.98042   1.46385   1.63493  -0.28027  -0.20588  -0.04510
Ge   14.06884  14.87304  11.93907   0.06360  -0.16307  -1.44336
Ge    7.78740   0.50088  19.68255  -0.28172  -0.01800   0.00762
Te   19.53615  11.06849  19.54169   0.61214  -0.20446   0.92064
Te   15.91886  17.20553  13.87848   0.31581  -0.63238   0.16524
Te    4.55751   5.81710   6.70580   1.20925  -1.50100   2.18530
Te    2.80884  12.98269  15.02167  -1.81554  -0.11588  -0.39987
Te   19.69795   3.52567  15.32456  -0.23094   0.74807   0.53351
Te    8.43864  10.45495  14.69204  -0.54916  -0.27576   0.53742
Te   19.99351  13.85571  17.55648   0.14496   0.07244  -0.59934
Te    7.19412  14.49565  13.13334  -0.81251   0.26645   0.67129
Te    6.62510   8.29344   8.28457   0.57211   0.15243  -0.62778
Te    6.46130  18.33110   2.56297  -0.32924  -0.10973  -0.25152
Ge   16.91401   4.63887  15.46372  -0.17036   0.23750   0.04409
Te    2.59196   7.88566   0.08916  -0.35037  -0.81077  -0.15376
Te    7.05683   9.12338   0.06694   0.41220   0.56429  -0.02230
Te    9.22222  16.66532  11.34748  -0.24833   1.00370   0.34571
Ge    2.30210   2.14109   3.06319  -0.67157  -0.33050   0.83009
Te   13.50629  10.70154  17.03413  -0.08800   0.17762   0.03559
Ge    2.52226  19.26923   9.70555  -0.41637   0.97956   0.88764
Te   15.77215   5.13302  10.82574   0.06400   0.65870   0.67510
Te    5.58460   2.61789   5.11248  -0.22861  -0.41976  -0.23635
Te    2.48188  14.41064  10.90069   0.28802  -0.95592   0.79893
Te    3.04303  16.58190   4.39174   0.27421  -0.62854  -0.46460
Ge   16.62158  19.18577   3.62214   0.65322   0.40740   0.51590
Te    0.03895   0.94872   8.28131  -0.89896  -0.00288  -0.23648
Te    8.76697   9.11659   5.61958   0.17066   0.03466  -0.04537
Te    4.86765  16.27365  11.36084  -0.02460   0.18377   0.48299
Te   19.85235   2.90029   2.34817  -0.37526  -1.01813  -1.35723
Te    3.02943  13.38404   1.89509  -0.72705  -0.41701  -2.32951
Ge   14.77173  10.41713   4.28688  -0.07375  -0.02213  -1.01833
Te    8.74941  17.83991  19.67392  -0.84332  -0.32700  -0.55296
Te    8.42887  11.56546   8.88353   0.49505  -0.65371   0.08004
Te   18.90378  17.90430   0.89374   0.70003   1.64897   0.68440
Te   12.17120   9.97764  13.71558  -0.52382  -2.44786   0.07409
Te    5.32835  15.21685   8.21106   0.47677  -0.35325   0.28483
Te   19.61799  17.65553  10.94305   0.44909  -0.01254   0.44506
Te   10.36041  13.35642  15.62105   0.18544  -0.03493   1.00336
Ge   11.71553  15.65285   3.45289   0.56176   0.02618   0.47739
Ge   18.45022   5.61276   9.75298   0.25578   0.52750   0.92860
Te    1.83179  11.13730   5.29455  -0.04726  -0.35044   0.73476
Ge    8.56177  14.51419  20.14531  -0.07810  -0.04924   0.20009
Te   11.50993  16.79497  18.10861   0.47949  -0.54829  -0.23992
Te    4.48790  12.36648  18.38483  -0.28479   0.48957   0.53237
Te    8.69642  15.28451   7.79443   0.29835   0.29148  -0.08316
Te   13.70823  14.89968  14.46512   1.10729  -0.84701   2.53880
Te   14.70681  20.13654  10.60063  -0.60020   0.13382   0.55006
Te    6.70106   5.49516  17.21283  -0.29255   0.22317  -0.19730
Te    7.30666   1.40527  16.83132  -0.33023  -0.18692   0.61623
Ge    6.30095   3.41446  11.77850   0.96877  -0.34055  -0.43288
Te    6.95747  17.37212   5.20592  -0.24215  -0.29484   0.41054
Te   11.90944  10.52477   6.40044   0.43071   0.02101  -0.48158
Ge   15.70609  10.90932   6.58498   0.15668   0.31196   0.68310
Te   14.23445   2.61122   7.21221  -0.32794  -0.18162  -0.36353
Te    8.10850   5.82086   5.63618   0.09593  -0.32083  -0.13524
Te    3.86886   4.13938   1.67382  -0.70544   0.14684   0.07633
Te   16.98912  12.93706  13.19708   0.26549   2.95908   0.12048
Ge   15.09257   2.37293  12.01906   0.10760  -0.78182  -0.15153
Te    0.79433  15.98630   1.99150   0.04752  -0.15499  -0.32923
Ge    6.96060  11.53424  18.12221  -0.05730  -1.42915   0.11268
Te    4.54313  11.79149  11.73543  -0.34281   0.44135   0.80512
Te    3.31191   9.72411  17.06058   0.12551  -0.52561   0.35009
Te   15.35879  11.07540  11.00831  -2.21229   0.10477  -1.37867
Ge   16.98809   5.53935  18.32654  -0.04449  -0.03171  -0.39415
Te    8.67307  13.42614   4.53225  -1.89978   0.71235   0.27769
Te   19.66140   7.40543   4.48939  -0.07010  -0.08843  -0.27883
Te   16.78254  13.98013   7.02293  -0.97507   0.13749   0.00927
Te   14.65111   6.77034  15.60865   0.34229  -0.06346  -0.94078
Te   19.69427  14.64506  12.75501  -0.10373   0.49275   0.37998
Te    1.11143  17.31584  15.18299   0.49335   0.21091  -0.11995
Te    5.18518   8.85870   2.49702  -0.11108   0.08791  -0.93356
Te    8.26846   7.85287  12.47449   0.84229  -1.06135  -0.18518
Te    9.15857   4.59489   0.33065  -0.54951   0.52431  -1.17481
Te   18.34524   2.50335   5.84259  -0.16296  -0.80661  -0.25145
Ge   13.80160   5.66815  18.11774   0.18792   0.26050   0.03648
Ge    3.37964  12.93291   7.34032  -0.53571  -0.34893  -0.10768
Ge   10.26781   0.55671  15.47119  -0.66029  -0.59014  -1.13913
Ge    0.82232   3.24440   5.86065   0.16104  -0.19398  -0.50452
Ge    3.64841  18.37147  18.53741   0.06344  -0.20446  -0.18312
Ge   10.53668   6.20558   7.33835  -0.17743   0.47939  -0.00738
Ge   16.67640  14.22641   3.32141  -0.31915   0.02105   0.29535
Ge    5.28406   2.54559   8.97952   0.18741   0.50382   0.40804
Ge    2.88643  19.77331  15.99116  -0.24687  -0.47023   0.21967
Te   20.23948  11.13402  14.96854  -0.58277  -0.35167   0.38260
Ge    4.55000  10.92616  14.81100   0.26207  -0.05576  -0.04638
Ge    2.99531   2.01999  12.93882   0.57740  -0.12002  -0.22153
Ge   16.43901   8.09971   3.87016   0.00260   0.43505  -0.13059
Ge   17.18339   8.11745  12.25043   0.73829   0.52193  -0.08063
Ge   16.13356  10.56360  13.83798  -0.26746  -1.04689   1.50790
Ge   15.34235   5.69152   7.86702  -0.34892  -1.55992  -0.36415
Ge   12.50422  14.00601  17.53529  -0.03478   0.15104   0.29411
Ge   12.07972   3.41084   4.88820  -0.09067   0.36134   0.23507
Ge    2.32022  15.60850  17.41156  -0.16728  -0.12736  -0.00552
Ge    6.83992  20.25648  14.43968   0.18159  -0.61188  -0.18100
Ge   11.57733   7.84649   5.42028   0.39770  -0.43427   0.17056
Ge   15.33474  16.71570   6.32742  -2.40002  -1.95459   0.24184
Ge   15.47890   2.09466  19.91483   0.48794   0.28600  -0.10338
Ge    0.61211   1.77583  11.96805  -0.37822  -0.63006   1.34407
Ge    1.14747   9.01621  10.04044  -0.07967  -3.13603   0.20826
Ge   18.79928   8.60704  14.25304   0.34148   0.04455   0.78733
Ge   10.18767  17.28869   1.65884  -0.36577  -1.12005   0.49644
Ge   13.59117   7.73952  20.05951  -0.24292   0.17199  -0.42589
Ge    4.83873  14.29526  15.43794   1.25880   1.17746  -0.35105
Ge    3.44229   3.57203  15.05179  -0.49146   0.44038   0.34712
Ge    5.36509  18.43346  16.36592   0.32554  -0.05511   0.09541
Ge   14.41330   3.52768   4.07904   1.01249   0.47738  -0.38437
Ge    1.43457   3.05135  10.15467   0.75057   0.59460   0.39360
Ge   14.14086  18.28727  17.50133   0.16069  -0.36327   0.20055
Ge    8.47668   3.75042  15.12566  -0.40358   0.04227  -0.20199
Ge   17.40031  15.84401   1.45177  -1.22276  -1.08252  -0.06156
Ge   17.22509  10.24126   1.58634   0.34137  -0.02638   0.05423
Ge   20.30924  18.54701   8.37175  -0.11277  -0.31976  -0.17364
Ge    2.32798   3.96601   8.14600   0.60350   1.09580  -1.43799
Ge   14.17274   4.44608  13.25271  -0.67981   0.11272   0.41851
Ge   14.66499   8.59492  13.40888  -0.62306  -0.61293   0.22759
Ge   17.35841   8.73178   6.32846   0.84687   0.07379  -1.15666
Ge   12.91895  20.25499  13.59825   0.57885  -0.67957   0.21795
Ge   17.18109  18.00236   6.10500   2.29351   1.99646  -1.23818
Ge    5.68735  12.05773   9.16818   0.60041   1.27983  -0.26458
Ge   17.79441  16.59491   8.12523   0.62955  -0.76896   0.58884
Ge   14.12687   7.02746   4.68082  -0.51538   0.63177   0.64067
Ge    5.09486   1.11874  11.30567  -0.19176   1.29826   0.12515
Ge    1.00873  18.23369  18.08537   0.13473   0.01355   0.16720
Ge    5.77444   8.29647   4.95910   0.08826  -0.57917   0.75042
Ge   17.51624  14.13995  19.52221   0.26459  -0.51102   0.63769
Ge   17.22685  11.18884  18.36160  -0.76287  -0.04794  -0.10570
Ge    6.93928   2.38695   1.35622   1.05844  -0.27237  -0.57345
Sb    7.40280   1.67495   7.60409   0.18294  -0.86805   0.25396
Sb   13.98659  18.92882   0.32050  -0.43530  -0.07208  -0.01114
Ge   14.73677   0.78935   4.40230   0.56843   0.38288  -0.05699
Ge    2.05660   6.98920  16.43131   0.91678  -0.11454  -0.23218
Ge    7.97403  13.85227  17.62978   0.29260   1.25465   1.18444
Ge   18.24249  15.50607  15.14670   0.03102   0.02697   0.28542
Ge    3.19737   6.91800  10.15812  -1.25910  -0.78063  -0.44412
Ge    9.90847  10.33450   3.12628  -0.40449   1.41199   1.04346
Ge    5.87115   8.91373  12.70382  -0.21841   0.09188  -0.19387
Sb   19.51184   7.98874  20.26964   1.07867  -0.06964   0.74419
Ge    4.50588   4.81192  12.60600  -0.98946   0.78750   0.34702
Sb   11.20268  20.11947   6.67571  -0.44625   0.06704  -0.22639
Ge   14.08913  18.87885   5.47818  -0.26924  -0.28048  -1.27261
Sb    2.93717   1.16457   8.12767   0.75565  -0.06096  -0.71928
Ge   10.71148   0.22338  12.41008  -0.10282   0.20130   0.11205
Ge    0.02760   6.43241  17.74378  -0.67891  -0.36778   0.55210
Ge   14.71493  10.68988  19.73864   0.01959   0.04243  -0.02037
Ge   18.21283   8.29056  17.95166  -0.34645  -0.42311  -1.04471
Ge   10.47371   9.42501  11.49628  -0.06347   0.05390   0.56560
Ge    4.22538   8.15563  14.53497  -0.34977  -0.36047  -0.05255
Ge   17.45839   1.36184   3.05017  -0.27620   0.23293   0.22170
Sb    0.13573   7.68864   7.67604  -0.54913  -0.71166  -0.03223
Ge   18.93878  13.38721   3.80216   0.94031   0.44433   0.56436
Ge    4.93580  19.94612  20.07390   0.45027  -0.02352   0.47530
Ge    7.15261   4.19316   3.50727   0.26606   0.30207  -0.08870
Ge    7.80161  19.21832  11.09068   0.11919  -1.03064   0.25387
Ge   11.20921  14.98668   0.20791   0.21327   0.02509  -0.07825
Sb   11.73926   1.00071   9.59392   0.10611   0.27275  -0.01044
Ge    4.12411  17.14689  14.47946  -0.21554  -0.67729  -0.46452
Ge   13.09200   7.34276   8.13424  -0.83596  -0.47710   0.11381
Ge    4.40538  13.82099   5.23416  -0.57723   1.05459   0.30803
Ge   20.31458   3.69837  18.50626   0.08068   0.34180   0.14333
Ge    0.73472  19.91225   5.19276  -0.28994  -0.21416  -0.28701
Sb   11.12165  15.62003  13.83178  -1.17909   1.04978  -0.59753
Ge   12.49778  15.97223   9.39064  -0.63795   0.08127   0.01535
Ge    7.85722  16.73323  14.57267   0.30374   0.66804  -0.04922
Ge    9.25906   4.26550  10.19488   0.29386  -1.12161   0.67985
Ge   19.62620  16.05545  19.04724   0.39889  -0.63413   0.58415
Ge   16.81344  18.80929  11.87294   0.69526   0.20674  -0.36650
Ge    5.99825  17.05749  19.82324  -0.26870   1.12844   0.24009
Ge    2.53101   8.58187   6.98941   1.07531   0.76318  -0.51157
Ge   10.87533   2.53782  16.54471  -0.42250   1.44363   1.87689
Ge   18.20503   1.93388  19.74581   0.15348  -0.15422  -0.38126
Ge    5.40642  10.64982   6.73586  -0.64029  -0.24383  -0.41730
Sb   10.20291   6.93865  16.66728  -0.36178   0.14412   1.50359
Ge    9.41599   2.66999   5.28353  -0.72184  -0.43742   0.34882
Ge   19.24746  13.15090   6.98200   0.95533   0.35997   0.04067
Ge    8.50985  11.76851   1.70610  -0.84962   0.10488  -1.02475
Ge    6.41715  13.12504   6.67271   0.65200  -0.08852  -0.26778
Ge   16.41687   2.74698   9.59873   0.07846  -0.37226  -0.45704
Sb   15.90154  14.34929  17.29746  -0.66923  -1.52629  -1.21960
Ge    2.02282   9.92497  13.45975   0.31622  -0.44907  -0.11266
Ge    1.53559  16.00225   9.21753  -0.71122   0.85162  -0.86296
Ge   10.92000   9.62708  16.37471  -0.23491   0.06812   0.42910
Sb    3.59770  17.59494   8.12571   0.29960  -1.59374   0.96097
Ge   16.30309  20.02740   1.18381   0.25778   0.33022  -0.81603
Sb   12.46457   6.68720  10.85114  -0.36290   0.32065   0.12983
Ge    8.19174   1.31451  12.50725  -0.16457   0.52620   0.98528
Ge    0.13266   4.91170   3.80537   0.98502   0.86737   0.96569
Ge    8.78118   3.71464  17.71710  -0.10086   0.29301   0.42330
Sb   20.30696  19.69781  13.13371  -0.05169  -0.36738  -0.02629
Ge   10.78580  13.40233   2.32957   0.20987  -0.08932  -0.59684
Ge   10.61948  20.06363  19.23401   0.16318   0.03955  -0.68640
Ge   14.07464  13.27065  19.71767   0.10969   0.31697   0.14144
Ge   13.37282   9.46716   1.67664  -0.17909   0.29057   0.40404
Sb    6.85015  18.69844   8.48174   0.08787   0.79434  -0.46045
Sb    8.15286   0.27036   3.28990  -0.50724   0.52495   0.31599
Sb    5.41441  12.94562   3.04098   1.45374  -0.80997  -0.38004
Ge    5.19544   8.04836  10.43445   0.99774   0.37851   0.55709
Ge   18.61369   2.93085  12.85771  -0.38041   0.00905  -0.44100
   300
 config_type=liqu Lattice="   20.31669   0.00000   0.00000   0.00000  20.31669   0.00000   0.00000   0.00000  20.31669"  Properties=species:S:1:pos:R:3:forces:R:3 energy=-40562.6797 pbc="T T T"
Ge    0.83955  19.76670   0.16909   0.11241  -0.09309   0.16883
Ge    8.72327   4.82701  13.00384  -0.60430  -0.06953  -1.18425
Ge   10.54769  13.66464   9.33404   0.10474   0.32669  -0.01581
Ge   17.89329  19.26179  19.21352  -0.37491   0.56667  -0.63735
Ge    9.77643  19.89934   1.25760   0.38828  -1.52297   0.82064
Ge    9.07478   0.83485  10.20240  -0.57941   0.31664  -1.49735
Ge   12.56044   4.65846  16.09067  -1.13392  -0.37322  -0.97036
Ge    9.89937  12.32416  18.87371   0.21900   1.02724  -0.18275
Ge    5.98908   2.71377  14.72927   0.34796  -0.10024  -0.29603
Sb   14.77833   0.94191  17.57879  -0.68834  -1.20026  -2.26029
Sb    1.14562   4.76873  13.13989   0.27143   0.56324  -0.32602
Ge   18.52725  17.41000  17.25103  -1.19152   0.97418  -1.24919
Ge   11.37952  12.85931   4.94621  -0.35606   0.16344  -0.53219
Ge   10.53783  18.68664   9.37370   0.06577  -0.34122   0.15279
Ge    5.62786   3.81239  19.63120  -0.55892  -0.41337  -0.70456
Sb   16.62685   5.66342   2.26022   1.90815   0.39312   0.13349
Sb    2.77543   6.70666   4.78360  -0.19453   0.55077   0.10188
Sb   10.12145   4.00334   2.91017   0.49810   0.03226   0.61627
Ge   11.11372   3.79225   7.24951  -0.29519  -0.19352   0.19553
Ge    7.09482  10.96311  11.87640   0.40590  -0.27476   0.20879
Ge   12.24866   1.52076  18.51179   0.35674   0.59769   0.22973
Ge   15.12798   8.01759  10.79174  -0.07489  -0.20717  -0.29974
Ge   15.27859  13.94084   9.48197  -0.17656  -0.11927  -0.29209
Ge   18.37952   5.48190  12.66602   0.27072  -0.44996  -0.09540
Sb    1.56907  11.36093   9.44139  -0.13974   1.27377  -0.94395
Ge   15.76755   7.73465   7.99686  -0.10870   1.88470   0.71630
Sb   16.77254   1.78897  14.67878  -0.55877  -0.15949  -0.26411
Ge   18.52777   8.23330   9.28680  -1.48125   0.67485   1.01868
Ge   12.61098   2.20992  14.72723   0.39101   0.19805  -0.37087
Sb   16.41252  18.97512  15.86466   0.74597   1.43376   1.23243
Ge   19.09819  10.63825   6.04919   0.56590   0.07929   0.12474
Ge   13.34022   4.56541   9.19852  -0.65147  -0.34102  -0.02587
Ge    2.56865  15.69356  20.23762   0.34901   0.17550   0.37265
Ge   11.38192  11.42896   0.70051   0.86389  -0.51161   0.06799
Sb   12.53991  16.19149   6.20181  -0.70233  -0.51248   0.20019
Te   10.32938   7.42457   0.37629   0.42820   0.05619  -0.30634
Sb   10.77752   9.18757   8.75924  -0.20236  -0.23167   0.12838
Sb    1.38736   1.95024  16.60645   0.33227   0.21702   0.36795
Ge   19.13916   3.33174  10.14443   0.00801  -1.39401  -0.11041
Ge   13.95730  10.02346   8.72896  -0.09414  -0.19342  -0.46589
Ge    7.16400  13.05756  15.34602  -0.49714  -0.95515   0.55599
Ge   15.59794   8.75309  17.34399   0.17782   0.29098   0.33053
Ge    1.31086   5.37710   0.83199   0.25680   0.13549  -0.10597
Ge    4.19798  10.10964   9.49940  -0.76428  -0.56475  -1.01422
Ge   18.14753  19.15400   8.92574  -0.96851   0.28564   0.09354
Ge   14.85934  17.18695   9.03779   0.34050  -0.92433   0.10339
Ge   16.45223   8.26841  20.16710  -0.20640  -0.35553  -0.38362
Ge    8.47933   6.40126   9.35946   0.98570   1.10527  -0.15832
Ge    1.99390  18.10665  12.12428   0.76691  -0.18630   0.23492
Sb   16.30989   0.43609   7.72744  -0.29305  -0.27177  -1.35291
Sb   10.74038   6.07469  14.24509   1.31093   0.06644  -0.98794
Ge    6.90227  10.68562   4.31665  -0.29162   0.03880  -0.19322
Sb   19.60254  16.88212   4.86358  -0.34241   0.94287  -1.01605
Ge   14.95304   5.45600   0.39809  -0.96629  -0.59246  -1.19188
Sb    9.95459  12.17597  13.01910   0.72954   0.01637  -1.25782
Ge    3.10917   4.50709  18.17590  -0.19681   0.12929  -0.22701
Ge   17.86470  10.91177   3.85397  -0.45118   0.34704   0.04571
Ge    5.45317  15.65521  17.70649  -0.03165  -0.32959  -0.37586
Ge   12.38597  18.02016  15.27735  -0.09848   0.08881  -0.04715
Ge   17.89409   0.88892  10.94148   0.18148  -0.15484   0.34551
Ge    4.93479   1.48413   2.33616  -2.49827  -1.12005   0.85493
Sb    9.80157  17.65843   5.65288   0.39791  -0.08240  -0.00892
Ge   16.33640   5.32091   4.88272  -0.69123  -0.26986   0.47641
Ge   12.65944  17.89472   2.66071   1.61209   2.32763  -0.65845
Ge    7.20392  15.14339   2.37305   0.52309   0.53769  -0.20717
Ge    6.05891   8.82249  16.38828   0.39444   0.05554   0.97734
Ge   14.19091  14.05613   4.10931  -0.33587   0.24188  -1.15225
Sb    0.16076  11.83015  12.10846   0.45341   0.05498  -0.06257
Ge   15.50232  12.39006   1.50257   0.24606   0.24416   0.94998
Ge    6.45612   5.51763   1.01661   0.24297   0.53895   0.33837
Ge   10.08933   9.93226  19.24454  -0.09665  -1.07712   0.07894
Ge    9.76862  18.43883  16.01801   0.16191  -0.43600   0.30511
Ge    8.32988  13.35513  10.96023   0.26661   0.76211   0.41275
Ge   17.90012   1.09108  17.37928  -0.01305   0.18586  -0.03927
Ge    0.81022   5.96596   9.93979   1.91783  -0.58464   0.03478
Ge    0.01545   8.88786  12.22371  -0.34176  -0.62595  -0.40432
Ge    2.60913  19.74848   2.68820  -0.17415   0.10967  -0.37266
Ge   15.37772  16.88857   3.19526  -0.58251   0.49080   0.42939
Sb   16.94387  15.42541  11.15384  -0.15106   0.33878  -0.46982
Ge   13.62548  19.14618   7.95777  -0.07698   0.00119  -0.50403
Ge    0.07161  15.55636   6.87867   0.40745  -0.78332   1.55378
Ge    5.52102  14.62193   0.15824  -0.02135   0.00866  -0.67175
Ge    1.65767  13.71037   3.97304  -0.33710   0.23257   0.67785
Ge   17.38477  11.72518  15.80497   0.84355   0.48702   0.59063
Ge   11.18852   8.13000   2.80285   0.52425   0.22111  -0.27537
Sb   11.99924   0.87189   3.69629  -0.58585  -0.01054  -0.22034
Ge   13.45654   5.54640   2.70967  -0.31731   0.40683  -0.39576
Ge   17.78992  11.05525  11.74816   2.56020  -1.38260   0.78032
Sb   12.28372   4.04914  19.65168   0.08400  -0.17515   0.70027
Sb   17.92809   5.08810   7.16921   0.27922   0.02606  -0.11712
Sb   13.02466  17.32805  12.14662  -0.87484   1.38676  -0.85598
Ge   13.28112  12.14862  13.90085   1.19632   1.78212  -0.47318
Ge   10.34411   1.85222   0.57768   0.40887   1.33633  -0.03618
Ge    6.28083   5.09252   9.20361  -0.38237  -0.68548   0.57802
Ge   18.31265  10.82946   9.13790   0.06333   0.40557  -0.73969
Ge   12.76681  12.71203  10.88128   0.13370   0.08472   0.34780
Ge   14.80487  15.55176   0.63550  -0.00592   0.73265  -0.22328
Ge    5.13679  19.00464  11.03937   0.24553  -0.13000  -0.55542
Sb   11.63071   3.00978  11.78546   0.28516   0.30657   0.71681
Sb    3.32998  18.96944   5.86454  -0.06231   1.84643  -1.22863
Ge   16.07316  16.66641  18.61559   0.34844  -0.10242   0.68478
Ge   13.76793  13.19569   6.37672  -0.08165  -0.37814   0.82336
Ge    4.22646  19.72103  13.75365  -0.27440  -0.06828  -0.08773
Ge   14.21710   1.59988   1.57742  -0.16836  -0.06527  -0.16890
Ge   14.12428  15.03424  11.83962   0.26825  -1.12868  -0.85425
Ge    7.67216   0.52076  19.79134  -0.14979  -0.19227  -0.16330
Te   19.60618  11.12461  19.46845   0.40645  -0.02969   0.71019
Te   16.01074  17.18141  13.98539   0.43291  -0.82131  -1.29179
Te    4.66936   5.73912   6.73734  -0.43256  -0.69057   0.05745
Te    2.55257  13.14913  14.96842  -0.37538   0.05626  -0.25573
Te   19.69826   3.66403  15.28396   0.46309   0.67365   1.10909
Te    8.21632  10.48199  14.62942  -0.49792  -0.12158   0.60176
Te   20.12999  14.01772  17.47213  -0.23554  -0.10882  -0.43607
Te    7.09821  14.58919  13.26533  -0.56352   0.50321  -0.48432
Te    6.61849   8.12191   8.23033   1.03203   0.88591  -0.97369
Te    6.42864  18.21790   2.49134  -0.20540   0.02111   0.09477
Ge   16.87710   4.55914  15.58784   0.12126   0.17735   0.21236
Te    2.45117   7.89879   0.09363  -0.48558  -0.62184  -0.11057
Te    7.09642   9.20624   0.14137   0.37783   0.55951  -0.19888
Te    9.25565  16.65493  11.18242   0.10350   0.14504   0.24263
Ge    2.32571   2.05095   3.24788  -0.84399   0.10614   0.39719
Te   13.53298  10.81374  17.12186  -0.14083  -0.23413   0.09171
Ge    2.50866  19.50463   9.93239   0.01185  -0.25746   1.01046
Te   15.75727   4.99865  10.72174   0.08747   0.42945   0.59268
Te    5.47445   2.46155   4.93707  -0.23551  -0.25744   0.08821
Te    2.52334  14.42667  10.76520   0.35743  -1.08433   0.88234
Te    2.86569  16.68949   4.29451   0.29223  -0.75955  -0.38150
Ge   16.61027  19.34693   3.73378  -0.16928  -1.25512   0.22892
Te   20.24934   1.00495   8.24318  -0.13573   0.82999  -0.04378
Te    8.82128   9.05590   5.47744  -0.11720   0.17642  -0.09567
Te    4.90160  16.42319  11.18250   0.10497  -0.75337   0.65482
Te   19.74537   2.81641   2.16453   0.00724  -0.59643  -0.16972
Te    3.13368  13.26693   1.73696  -1.33523  -0.21827  -1.40632
Ge   14.87187  10.47676   4.11928   0.31067   0.02813  -0.34355
Te    8.68139  17.88056  19.80428  -0.68179  -0.52984  -0.40681
Te    8.45723  11.68727   8.94784   0.68411  -1.35870  -1.00395
Te   18.88009  17.92077   0.99443   1.33751   1.62701   0.48119
Te   12.15795   9.96600  13.73953  -0.51382  -3.02349   0.12415
Te    5.25329  15.05349   8.31091   0.26669  -0.07115   0.08031
Te   19.68236  17.82300  10.78361   0.18965  -1.19849   0.84996
Te   10.38353  13.25235  15.77551   0.28356   0.16651   0.90589
Ge   11.87770  15.78870   3.26071   0.23659  -2.52328   1.30792
Ge   18.82634   5.67577   9.77528  -2.09577   0.78873   0.68852
Te    1.84589  11.14948   5.18754  -0.14953  -0.41124   0.47843
Ge    8.61396  14.28251  20.04581  -0.08982   0.45630   0.83983
Te   11.59776  16.85863  18.07584   0.26073  -0.28856   0.01229
Te    4.45652  12.30737  18.40798   0.31826   0.47633   0.37800
Te    8.65619  15.41627   7.99953   0.41011   0.29850  -0.24732
Te   13.91838  14.94588  14.48182  -0.21936  -0.59091   1.39540
Te   14.60804  20.13146  10.48947   0.15885  -0.18300   0.82854
Te    6.67289   5.49524  17.50263  -0.14840   0.27746  -0.12721
Te    7.13307   1.36855  16.94151  -0.13392  -0.33579   0.55958
Ge    6.20188   3.48841  11.60319   0.15278   0.29918  -0.12335
Te    7.01567  17.30201   5.21361  -0.60403  -0.06132   0.16681
Te   11.94793  10.58251   6.38402   0.34014  -0.39255  -0.42654
Ge   15.72542  10.84736   6.64360   0.14151  -0.10500   0.15712
Te   14.07634   2.56058   7.15779  -0.22897  -0.32435  -0.06849
Te    8.08039   5.89808   5.55446   0.06461  -0.43298  -0.24234
Te    3.91499   4.21590   1.72471  -0.79276   0.04616  -0.08117
Te   17.01859  12.97598  13.33485  -0.33556   1.98879   0.47774
Ge   15.02876   2.28008  12.07748  -0.12499  -0.08418   0.18530
Te    0.80216  16.04788   2.09448   0.07371  -0.24203  -0.50549