   300
config_type=liqu Lattice="   20.31669   0.00000   0.00000   0.00000  20.31669   0.00000   0.00000   0.00000  20.31669"  Properties=species:S:1:pos:R:3:forces:R:3 energy=-40503.9342 pbc="T T T"
Ge    1.52337   1.79083  19.40555   0.31350   0.73855  -0.35477
Ge    7.18200   3.77219  12.14135  -0.35992  -0.03098  -0.13886
Ge    9.40886  14.25099   8.85720   0.02924   0.13853   0.26017
Ge   20.29824   0.36417  18.33509  -0.21915  -1.26605  -0.84198
Ge   10.28195  19.94044   1.87757  -1.50453   0.09786   1.36975
Ge    7.63487   2.81027   8.47298   0.15404  -0.17538  -0.04021
Ge   12.84259   4.00954  17.12852   0.00099  -0.29002  -0.16526
Ge    8.78309  13.03390  19.06400  -0.24132  -0.57074  -0.37819
Ge    2.13805   2.26199  16.75432   5.62160   8.76448   4.22640
Sb   17.03607   0.95605  19.33669  -1.45713   1.29841  -0.91826
Sb    2.09630   4.72629  15.04225   0.05590   0.27885   0.69406
Ge    0.54032  18.30621  19.19824  -1.07588  -1.13195  -0.12566
Ge   11.66949  14.89302   3.16162   1.34115  -0.80017   0.52588
Ge   10.61933  19.17199   9.58466  -0.89343  -0.87949   0.18094
Ge    5.71889   4.77188  20.21642  -0.12746   0.12821  -0.50241
Sb   18.25662   5.76792   1.20938  -0.98835   0.77848   0.04401
Sb    2.72144   5.47327   3.07114  -1.17271  -4.02718  -5.22876
Sb   11.06367   5.90783   1.69714   0.08393  -0.76314   2.38991
Ge   10.57788   1.51337   7.30708  -0.36303   0.74392   0.36095
Ge    6.56657  11.73542  13.21838   0.50905   0.12509  -0.44818
Ge   11.16388   2.69056  20.10723   1.23719  -0.78002  -1.32286
Ge   14.14367   7.81898   9.17522  -0.09568   0.13647  -0.00081
Ge   15.19403  12.63460  11.42431  -0.20170   0.20777   0.09559
Ge   19.18727   6.18481  13.88432  -0.53329   0.53717  -0.24645
Sb    0.54401  12.70757   8.29634   1.20694  -0.11644  -0.30856
Ge   15.81500   8.95968   7.29973   0.03795   0.12749   0.20022
Sb   16.75477   1.33019  14.28173  -0.35430   0.32583  -0.26677
Ge   18.77432   8.28567   9.72389  -0.13709   0.34682  -0.92819
Ge   12.90531   1.41837  17.43966  -0.08756  -0.35684   0.00463
Sb   18.54104  17.84666  15.33046  -1.63381  -0.61740  -0.38285
Ge    0.34354  10.92498   6.15978  -0.20110  -0.58477   0.57253
Ge   11.75376   2.94895  10.11709  -0.50460   0.45497  -0.16758
Ge    3.21710  14.09269   0.19115   0.91519   0.80624  -0.79742
Ge   10.40149  11.02567   0.17337  -1.67933   0.38074   1.50214
Sb   11.97264  15.92163   6.34939   1.13679  -0.21815  -1.10164
Te   10.74012   8.34873   0.41324  -0.55545   0.04087   0.15431
Sb   10.73128   9.43875   8.91262   0.74398  -0.39059  -0.89155
Sb    4.31319   1.24094  17.96335  -3.39091   0.45400  -0.23743
Ge   18.40244   0.68259   8.53948   0.39830   0.22885   0.35550
Ge   13.39613  10.67557   8.20321   0.16124  -0.46802  -0.07948
Ge    7.16641  12.42709  15.65080   1.07073   0.00294   0.91863
Ge   16.35407   8.44040  17.56103  -0.05242  -0.22332   0.04847
Ge    1.93184   5.20864  19.34234  -1.10084  -0.96060  -0.70731
Ge    2.53296  10.38122   7.71412   0.60070   0.19462   0.30449
Ge   17.04973  19.02036  10.80765  -0.21896   0.27720  -0.54791
Ge   15.32473  16.89371   8.79235   0.05465   0.25605  -0.21935
Ge   16.52834   7.97263  20.25545  -0.09054  -0.56709  -0.05846
Ge    8.06350   7.63328   8.70417   0.21199  -0.40567   0.76961
Ge    1.84520   0.28185  13.28259   0.31095  -0.99250  -1.11628
Sb   16.01914  19.93584   8.06642   0.08521  -1.42920  -0.24487
Sb    9.92283   5.33932  14.69680   0.15946  -0.07508   0.16332
Ge    7.21260  10.95948   4.32176   0.19825   0.16337  -1.00570
Sb    0.30648  18.35444   4.03805  -3.60495  -5.17014   4.06213
Ge   15.87080   3.81834  19.30689   1.24464   0.98718   1.27242
Sb   11.70740  13.53024  11.17403   0.44245  -0.00348   0.04151
Ge    5.04775   7.84562  18.77219   0.59438  -0.35709  -1.14741
Ge   19.00780  11.61947   3.60925  -1.35516   0.18397   0.05754
Ge    5.20597  15.74822  18.27155  -0.16296  -0.05401  -1.18586
Ge   12.61406  16.75793  14.55238  -0.02046  -0.26666   0.33604
Ge   19.74873   1.01812  11.68465  -1.30740  -0.05895  -0.31945
Ge    3.42054  20.16479   2.18502  -0.60591  -0.13438  -1.86042
Sb    8.31887  18.52403   3.52209   0.34692  -0.66527   0.64976
Ge   16.90274   5.18961   5.29420  -0.64627   0.24983   0.37321
Ge   11.46302  17.98104   3.35707   1.12978   1.00977   0.55506
Ge    6.34244  14.76309   2.93640   0.05687   0.06680  -0.76760
Ge    7.79454   7.69960  17.95857  -0.91006  -0.40518  -0.67790
Ge   14.44272  15.20931   3.86218  -0.33556  -0.33620   0.04168
Sb    1.58275  11.33680  11.01366  -0.30396  -1.81190  -0.63818
Ge   14.67157  13.40090   1.89886   1.55021   0.81875   0.75400
Ge    6.35103   5.62909   2.32043   0.57371  -0.20157   0.43913
Ge    9.20379   9.54449  18.72639  -0.06858   0.85663  -0.66672
Ge   10.26612  18.08164  16.20262   0.56914   0.20703  -0.25497
Ge    8.83075  12.97893  11.84527  -0.80814   0.01591  -0.15493
Ge   18.60010   0.17701  16.24093  -0.98658   3.30147  -1.92335
Ge    0.77386   4.96304  12.56488  -0.38955   2.61410  -0.88164
Ge    0.34049   9.03907  11.96273  -0.14118  -0.56776   0.14623
Ge    1.72700  18.93972   0.89541   0.76026   0.21957   0.08836
Ge   15.33159  18.00481   2.41776  -0.19673  -0.09113  -0.20068
Sb   19.51624  15.36528   9.38279  -0.80496   0.14557   0.57607
Ge   12.56916  18.85654   7.01151   0.20639  -1.24329  -0.73884
Ge    0.39481  17.36531   8.01763  -0.15695   1.22477   0.45183
Ge    6.21849  14.01770  19.96972  -0.70990  -0.50994   0.20730
Ge    0.93326  15.35072   6.75518   1.05507  -0.70059  -0.42044
Ge   17.93127  11.48171  17.87578  -0.93131   0.41673  -1.12194
Ge    8.64546   8.07196   2.60948   0.39241   0.08847   0.51445
Sb   13.10172   1.29101   4.69177  -0.43932  -0.92789  -0.42083
Ge   14.98534   5.83382   1.30495  -0.02215   1.01790  -1.37901
Ge   19.25026  12.24347  10.40591  -1.56901  -0.60927   0.36389
Sb   13.85180   3.15424   0.35450  -2.66580   6.21061   0.49662
Sb   19.45609   4.14587   6.27980  -1.25746   1.18214   2.08445
Sb   10.43813  18.63592  13.25801   0.51095  -0.42004   0.00058
Ge   14.39930  12.65997  14.03351   0.02964  -0.39070   0.07738
Ge    9.10787   3.30005   0.53263  -1.81109   0.01653   1.01074
Ge    5.88916   6.15766   9.57931  -0.15709   0.12731  -0.00396
Ge   17.09750  10.93656   8.88340   0.33799  -0.33816   0.02830
Ge   12.12737  13.47734   7.82504  -0.00906  -0.33878  -0.10084
Ge   17.04275  16.23240  20.28452  -0.91800   0.72707   0.28060
Ge    4.40304  18.84167   8.62003   0.70761  -2.18397   1.19134
Sb   11.79148   3.56294  13.02211   0.00510   0.11947   0.36576
Sb    3.74896   0.74295   4.48896   1.06677   1.66127   0.98458
Ge   18.12915  18.97895  17.78800  -1.60753  -2.88965   2.19246
Ge   13.82443  12.58899   5.10587   0.14451   1.01490   0.30180
Ge    3.58756   1.01959  14.86836   1.61422   0.87772  -0.63777
Ge   12.22816   0.71616   1.18176   1.25715   0.59519   0.16819
Ge   14.07868  15.08796  10.91929   0.07543  -0.08288  -0.24085
Ge    8.42209   0.49168   0.03957   0.09733   0.25983   0.68994
Te    0.31686  10.07926   1.20248  -2.97314  -0.43671  -3.80349
Te   16.28392  16.61961  14.37904  -0.79455  -0.25667  -0.29269
Te    3.97359   3.67258   7.39102   3.01767   3.95730   0.88835
Te    4.68160  13.26043  15.02867  -0.79047  -0.08859   0.74492
Te   18.72350   3.26515  16.45866   0.55490   0.08166  -0.40567
Te    8.82999  10.09760  15.09882  -0.11427  -0.27222   0.25309
Te   20.30232  13.03871  17.95742  -0.93413   0.62762  -0.75220
Te    7.49563  15.67335  13.52900   0.37062  -0.55857   0.42871
Te    4.82649   7.56925   7.02077  -0.10614  -0.68370   1.23590
Te    5.88000  19.39047   2.19409   0.39491  -0.60909  -0.04068
Ge   16.35833   5.33411  13.29916   0.28025  -0.07068   0.43625
Te    3.34062   6.78749   0.71165   1.53702  -1.12801   0.44270
Te    6.16523   7.99733   0.94131   1.81892   1.00199  -1.11256
Te    7.67821  18.99904  12.29736   0.25781   0.71967  -0.10975
Ge    1.57912   2.22644   3.10190   2.30982  -0.63778   0.53821
Te   14.49878  11.68410  17.58422  -0.12431  -0.56193  -1.95503
Ge    2.08761  19.74639  10.60997   0.63423  -1.22910  -0.23587
Te   13.74582   5.59412  12.22921   0.18235   0.17114  -0.28879
Te    5.11287   3.25369   2.92928  -2.04236   1.29346   1.48616
Te    1.48721  14.09703  11.11835   0.31769   2.40825   0.02455
Te    1.84775  16.13865   4.03914   3.37175   0.25889   1.13636
Ge   16.52533  20.27867   1.71084  -1.06415  -1.44007  -1.22654
Te    1.00219   0.12268   7.69667  -2.11700  -1.89637  -0.14037
Te    7.35021   9.30954   6.37150   0.88309  -0.19201  -0.19788
Te    5.95232  16.75304  11.38977  -0.89282  -0.49781  -0.61337
Te    0.46984   3.96418   1.83755  -1.02402   2.18787  -2.47343
Te    0.85984  12.73464   0.56504   1.17218   1.51407  -0.03670
Ge   13.20447  10.97861   3.31062  -1.39931   1.74823  -0.19942
Te    8.52513  18.62669  18.60213  -0.81750  -0.63216  -0.89544
Te    8.61484  11.58273   8.91076  -0.53464  -0.22254   0.08178
Te   18.67853  19.29859   0.22098  -0.32259  -1.79926   1.90436
Te   11.16696   8.08021  14.18492   0.02269   0.15524   0.21744
Te    6.47639  13.72434   9.85022  -0.01404   0.20547  -0.25130
Te   20.19429  16.64962  12.75703  -0.15331  -1.78328   0.69107
Te   10.14660  13.57787  16.39041  -0.33433  -0.10197  -0.36651
Ge    9.95957  16.37436   2.37620  -1.05447  -0.67626   0.62790
Ge   19.01424   4.67225   9.73861  -1.76210   1.06404   1.22223
Te    1.32043  10.31967   3.48509   2.09076   1.26779   3.71026
Ge    7.61926  16.10253   0.94655   0.35869  -0.02784   0.20648
Te   10.98367  16.37460  18.75033   0.52096  -0.26783  -0.05754
Te    2.40311  11.25932  18.09687   2.82875   1.72514   1.47569
Te    9.31060  16.65701   7.07717  -0.66034  -0.34965  -0.52054
Te   13.79362  14.42031  16.33346  -0.08412   0.55990  -1.05665
Te   14.50911   0.25666  11.27805   0.90845  -0.10890   0.92970
Te    6.36467   6.67934  14.60798  -0.67356   0.14321   0.23351
Te    6.76474   0.52609  17.56303   3.20190  -0.60408  -1.17635
Ge    6.39126   1.41920  13.17186  -0.45174  -0.13046   0.47576
Te    5.53271  18.46393   6.12405   1.16637  -0.69215   0.09086
Te   11.47184   9.62659   5.92097   0.45771   0.76216  -0.21930
Ge   18.00155  11.23907   6.06534  -0.88176  -0.43900   0.27146
Te   14.53275   2.10589   7.60073   0.72353   1.60143  -0.56360
Te    8.43302   4.60851   6.30049  -0.35667   0.31809  -0.11417
Te    3.55281   2.33479   0.46005   0.13906   0.75231   1.82295
Te   18.44576  13.80057  12.75855  -0.71412  -0.41482  -0.06183
Ge   14.38543   3.04309  10.39385   0.70369   0.30683   0.08932
Te    0.32635  16.53365   1.07973  -0.49130  -0.45166  -0.36990
Ge    5.22218  12.10904  18.26913   0.31305   0.00831   0.05394
Te    3.92713  12.76104  12.24135   1.42270  -0.15304   0.18525
Te    2.19615   8.75382  19.38575   2.95510   2.26581  -3.14497
Te   13.20827   9.57193  12.32146   0.37290   0.68384   0.20922
Ge   16.17281   3.40396  17.08051  -0.96418  -0.83003  -2.54460
Te    8.72812  13.67557   1.43967  -0.30149  -1.40244   1.37139
Te    0.09472   7.61990   3.26928  -1.62038  -0.57322   1.84110
Te   18.47206  14.01898   6.89496  -1.34130   0.48378  -0.25899
Te   13.22887   6.83916  17.17879   1.34407  -0.12023  -1.15429
Te    0.35363  12.33936  14.00248  -0.56519   0.78483  -0.15329
Te    0.88087  16.98298  15.58344   0.88942  -0.78476   0.55359
Te    4.87885   9.43875   2.94160   0.05095   0.47650   1.17426
Te    8.38596   8.31630  11.69157  -0.08633  -0.11775  -0.86648
Te    8.40505   5.69491  19.91741  -0.75122   0.61973   0.25165
Te   19.18171   2.35452   4.31814  -1.10580  -0.69706  -0.23627
Ge   12.31619   5.04664  19.91497  -0.34709   0.98886  -1.58897
Ge    3.55491  14.25135   7.98198  -0.72490  -0.14659  -0.01408
Ge    9.68409   1.30258  17.21829   0.58854  -0.46501  -1.20439
Ge    2.03472   2.60269   6.61517  -3.52804  -0.40648  -1.82590
Ge    4.93114  18.83243  18.77920  -0.28565  -0.31188  -0.23627
Ge   10.79465   6.07325   6.86648   0.25612  -0.64490   0.69353
Ge   18.52618  14.50096   3.26126  -1.49587   0.14538   0.07863
Ge    5.23797   3.37480  10.09681   0.49651   0.39691  -0.35056
Ge    1.84307  18.70306  17.31049   1.89742   0.48773  -1.10927
Te    1.04642  10.43409  16.00341  -1.00214  -1.41484  -2.10817
Ge    3.69289   8.44832  16.29596   0.40172   0.19570  -0.39394
Ge    1.01942   1.62801   9.75965   2.41746  -1.05506   3.66102
Ge   14.64686   9.24805   3.59450   1.10044  -2.28928   0.30859
Ge   18.02730   8.35549  12.09544   0.03026  -0.23719   1.24157
Ge   17.26134   9.98894  14.21721   0.01688  -0.33835  -0.02887
Ge   16.19473   6.18395   8.47961  -0.13071  -0.03286  -0.50986
Ge   11.85557  11.88931  18.85915   0.22067   1.18495  -1.94387
Ge   11.87851   3.54956   4.97479  -0.68239   1.25054   0.29889
Ge    1.98366  15.02258  17.63630   0.44648   0.31428   1.33524
Ge    7.12641  20.03689  15.23842   0.46516  -1.02643  -2.49866
Ge   10.37250   7.47860   4.87224   0.02160  -0.18667  -0.92864
Ge   15.36476  16.92876   5.77503   0.11015   0.10588   0.39693
Ge   18.23921   2.99921   1.74677  -1.09702  -0.33716  -0.28114
Ge    0.88412   2.76860  12.92823   0.06372  -2.02630   0.33791
Ge    1.20937   8.32867   9.02324  -0.04640   0.69241   2.69128
Ge   18.72338   9.07131  16.50567  -0.46446   0.01637  -0.67492
Ge    9.64167  17.94787   0.54293   0.65457  -0.49473  -0.44692
Ge   13.97548   8.67304  18.89986   0.42723  -0.37549  -0.25853
Ge    3.26472  15.59850  15.62236   1.50757   0.24858  -0.63954
Ge    4.02193   4.06259  18.21128   0.31685   0.70519  -0.44932
Ge    4.29053  19.25412  16.02802  -0.19311  -0.73979   0.08483
Ge   15.02442   4.56177   3.28511   0.04934  -0.27125   1.86199
Ge   20.29077   3.07290   8.54975  -0.65879   1.42585  -2.05111
Ge   13.10599  18.60871  17.67905  -0.32726   0.35684  -0.36968
Ge    8.24089   3.08359  14.56515   0.13803  -0.16978   0.07313
Ge   18.54178  12.28438   1.09006  -1.13006   0.47084   0.41473
Ge   17.12495   9.58680   2.99786   0.29120  -0.10891   0.03089
Ge    0.21832  18.28364  11.01857  -0.92196   1.11162  -2.16263
Ge    1.00313   5.58795   9.05452   0.85322   0.20382   0.26841
Ge   14.45527   3.18256  14.94662   0.34178   0.02502   0.09897
Ge   14.86982   9.11170  15.13432   0.17416   0.51251  -0.21296
Ge   18.66560   8.71079   5.69253  -0.12015  -0.49376  -0.01114
Ge   15.63527   0.48958  17.02630  -0.64009  -0.14099  -0.72825
Ge   17.58788   0.38043   3.61467   0.48819  -0.71754   2.81242
Ge    5.52981  10.30979   8.40356  -0.28032   0.11423   0.19478
Ge   18.06893  16.59795   5.93986  -0.11668   0.15056  -0.23866
Ge   13.21846   6.88091   4.47035  -0.03286  -0.12402  -0.13198
Ge    3.67072   1.08493  11.25379   1.26787   1.26663   0.11379
Ge    3.04319  17.03141  19.69200  -0.07321  -0.70765  -0.11106
Ge    6.55902   6.52509   4.95266   0.36604   0.30999   0.03124
Ge   16.66281  10.48541   0.37248   0.69290   0.04504   0.51489
Ge   19.39574   9.98351  18.99673   0.00013  -0.99570   0.38027
Ge    7.03908   2.68037  19.04661   1.02734   2.17938   0.52545
Sb    6.02818   2.03084   5.84550   1.14560  -0.04480   0.93397
Sb   13.34666  18.48725   0.17857   0.45289   1.24892   0.84825
Ge   15.42722   2.01902   3.61669   0.42239   0.37022  -0.42340
Ge    1.33369   7.48979  15.76642  -0.38950  -0.48429  -0.21789
Ge    8.20149  15.63677  18.35372  -0.32824  -0.41670  -0.02672
Ge   19.04123  14.90805  16.50776  -0.29890   0.22126  -0.33446
Ge    3.28774   4.79891  10.75039  -0.46567   0.74676   0.37109
Ge   10.71045  10.65187   3.32848  -0.70948  -0.06237  -0.06967
Ge    6.32665   9.13687  13.22729  -0.29359  -0.22818   0.23711
Sb    0.49454   7.43200   0.47592  -3.57724  -3.66932   1.50262
Ge    3.81640   3.41936  13.21186   0.34001  -0.15229  -0.37932
Sb   10.30789  19.74912   5.50990   0.02033  -0.67821   0.52017
Ge   14.89659  19.53175   4.76319   0.72134  -1.07754   0.16696
Sb    3.93121   0.83213   7.72182   1.28388   0.31163   0.55357
Ge   11.67847   0.90531  11.87561  -0.46471  -0.25496   0.10058
Ge   20.27692   7.44304  18.14885  -0.56787  -0.46984  -1.24572
Ge   14.26479  11.03368  20.10882   0.63146   0.16309   0.28149
Ge   17.63337   5.56388  18.60598  -0.77099   1.91126  -0.20600
Ge   10.26440  10.55598  11.25561  -0.20252   0.54585   1.17424
Ge    3.69336   6.61240  13.53397   0.23674   0.09958  -0.18499
Ge    0.63346  20.14927   2.83886  -0.42367   4.19132  -7.44829
Sb    1.14866   7.56092   6.64337  -1.60400  -1.67687  -1.25801
Ge    0.60062  14.39206   2.88605   0.01262  -0.72717  -2.60808
Ge    5.78404   0.85595  20.23051   0.11464  -0.96642   1.55756
Ge    9.50205   4.22410   3.67016   0.01908  -0.19577  -0.20132
Ge    6.42758   1.15086  10.56166   0.16924  -0.53406  -0.39502
Ge   11.24989  14.26329   0.50454   0.23525   1.24466  -0.39927
Sb   12.66902   0.31594   8.92535  -0.49360   0.56345   0.35366
Ge    2.63918  17.63602  12.81377  -0.09223   0.08696  -0.45999
Ge   14.08237   5.11831   6.83594   0.25236   0.39791  -0.27751
Ge    2.65021  12.62996   5.69347   1.03183   0.45714   0.71783
Ge   19.33577   4.04706  19.25249   1.50666   0.43746  -0.63740
Ge    0.88412   0.70269   4.89592  -0.41135   0.95146   3.55652
Sb   10.63452  14.90683  13.71918   0.07462  -0.02092   0.17556
Ge   11.76717  15.88836   9.07728   0.43176   0.72230   1.15688
Ge    5.63979  17.15265  15.71444   0.15757  -0.63808   0.17847
Ge   10.18500   5.32548   9.31814  -0.10534  -0.20613   0.12951
Ge   18.80309  14.58279  19.96862   0.18775   0.12977  -0.05129
Ge   19.68120  19.94136  13.96685  -0.51730  -0.29212  -1.52060
Ge    5.51382  17.05808   0.24829  -0.91522   0.33079   0.44998
Ge    3.41484   6.41539   4.87410   2.59781   3.29881   6.67560
Ge    9.30371   3.71802  17.27977  -0.16821   0.87250  -0.13214
Ge   19.47198   1.78023  20.09362  -0.58313   0.52136   1.90094
Ge    2.81179   8.98844   5.22792   1.71979   0.27295   0.25994
Sb   10.53857   6.40101  17.90914  -0.72033   0.07492  -0.65389
Ge    9.39100   1.43548   3.95374   0.88865   0.34227   0.19743
Ge    0.31673  13.25100   4.86507  -0.54192  -0.56683   1.67495
Ge    6.66382  11.08650   0.26722   0.18674   0.32456  -0.44135
Ge    4.77521  11.37247   5.02303  -0.30206   0.24429   0.15133
Ge   17.32032   3.15368   7.64466  -0.86346  -0.14897   0.75900
Sb   16.23436  13.20275  19.35684   0.32195   1.27049   0.75031
Ge    2.84458  10.06952  13.67538   0.46377  -0.33913  -0.08153
Ge    2.58487  16.77017   9.60378   0.27905   0.01403  -0.14698
Ge   11.29006   9.59988  17.03173  -0.20541  -0.03804  -0.11527
Sb    2.65455  18.90767   5.67026   0.28156  -2.50054   1.26848
Ge   14.80784   1.24367   0.62960   2.23877  -6.88155   1.18070
Sb   11.29934   7.37534  10.94759   0.70555  -0.91407  -0.14984
Ge    9.53381   0.89734  13.53621  -0.09354   0.45072   0.17166
Ge    0.49316   5.30039   4.60731   1.19823   1.11801  -1.01087
Ge    6.38070   3.17578  16.40201  -0.15107   0.70716  -0.10795
Sb    0.93421   0.81129  15.87650  -5.53397  -6.81095  -4.34179
Ge   12.72193  12.41700   1.00875  -0.86142  -0.35173   0.68665
Ge   10.72642   0.15928  19.15155   1.26200  -0.36581  -0.29555
Ge   13.55334  16.00943  20.04684   0.41897  -1.60936  -0.28783
Ge   13.25634   9.13554   0.96168   0.65760  -1.24798   1.26286
Sb    7.59246  17.86594   8.95706  -0.54415   1.01141   0.41353
Sb    7.37091   2.10573   2.41170   1.73130  -1.04290  -0.77394
Sb    3.44996  11.89837   1.96184   1.14124   0.41095   0.35603
Ge    3.76212   9.49536  10.67902   0.16836  -0.43897  -0.30994
Ge   17.50498   3.53559  11.88462   0.24352  -0.24014  -0.26029
   300
config_type=liqu Lattice="   20.31669   0.00000   0.00000   0.00000  20.31669   0.00000   0.00000   0.00000  20.31669"  Properties=species:S:1:pos:R:3:forces:R:3 energy=-40549.2240 pbc="T T T"
Ge    1.51490   1.18602  19.87670  -0.55551  -0.36986   0.21011
Ge    7.09209   3.72978  12.06065   0.16125  -0.03861   0.01666
Ge    9.52330  14.22017   8.96155   0.22549   0.24983   0.03241
Ge   20.27189   0.41273  18.07237  -0.81873  -0.49060   0.96584
Ge   10.40115  19.96563   2.45671  -0.65725   0.79697  -1.03778
Ge    7.68735   2.72753   8.50477   0.36220  -0.24108  -0.11957
Ge   12.76628   3.87141  17.06257  -0.20437  -0.19208  -0.17801
Ge    8.66956  12.93503  18.92676   0.13172  -0.44212   0.11700
Ge    3.13041   3.03226  15.77588   1.62983  -3.03279   2.33611
Sb   16.68349   1.00288  18.79111   0.07541   0.31049   0.16505
Sb    2.09851   4.95220  15.13137  -2.42230   3.21411  -1.64127
Ge    0.40445  17.77488  18.85471  -0.10063   0.48943  -0.80640
Ge   12.00894  14.78230   3.61513  -0.16130  -0.74747  -0.03093
Ge   10.38397  19.02005   9.64812   0.21422  -0.18180   0.01952
Ge    5.74071   4.81407  20.05595  -0.49798   0.31763   0.53281
Sb   17.67980   5.65619   1.32795  -0.61809   2.06466  -0.20257
Sb    3.36576   5.63579   3.16594  -1.39372   0.44317   1.31732
Sb   11.08863   5.71966   2.10983   0.42323   0.29285   0.06043
Ge   10.44999   1.76197   7.43995  -0.30544   0.20576   0.06108
Ge    6.73291  11.76459  13.23625   0.29905   0.22024   0.19955
Ge   11.20228   2.71512  19.72183  -0.11333  -0.44892  -0.13227
Ge   14.18582   7.84651   9.14927  -0.35177   0.01230   0.31546
Ge   15.01806  12.68780  11.44941  -0.20001   0.12846  -0.21151
Ge   19.00434   6.35785  13.79840  -0.26977   0.12776   0.27888
Sb    0.85063  12.72242   8.17765   0.31518  -0.41111   0.85164
Ge   15.85008   8.92115   7.37297  -0.00787   0.14908  -0.13863
Sb   16.69099   1.38401  14.20861  -1.03477   0.53610  -1.06257
Ge   18.34884   8.35872   9.65093   0.13754   0.30499   0.10196
Ge   12.83245   1.32280  17.41177  -0.02799  -0.32082  -0.08758
Sb   18.24594  17.85632  15.31723   0.59477   0.09501   0.10226
Ge   20.30721  10.82231   6.17479   0.19452  -0.68026   0.94257
Ge   11.74666   3.11776  10.13974  -0.11804   0.27717  -0.05576
Ge    3.46483  14.50777  20.09171   0.14386  -1.06378   0.67196
Ge   10.09695  11.16914   0.54255   0.32767   0.26310  -0.05076
Sb   12.09507  15.84092   6.20359  -0.14277  -0.73294   0.12457
Te   10.60438   8.48163   0.37568   0.26707  -0.19455   0.25817
Sb   10.82537   9.45030   8.81377   0.25131  -0.09685   0.75509
Sb    3.88434   1.27657  17.91774  -0.63361   0.14502   0.35564
Ge   18.73137   0.86822   8.70103  -0.77714   0.20688   0.50644
Ge   13.44734  10.56408   8.11032   0.06816  -0.28944  -0.03003
Ge    7.40672  12.38061  15.83054   0.27577   0.12585   0.18871
Ge   16.31575   8.36014  17.52992  -0.02370  -0.24799  -0.59091
Ge    1.60979   4.88587  18.98581  -0.35927   0.07934   0.06662
Ge    2.87085  10.29482   7.95821  -0.29797   0.18360  -0.15097
Ge   16.98532  19.06141  10.62440   0.10038   0.16182  -0.26765
Ge   15.36231  16.96107   8.64122   0.02075  -0.17979  -0.10857
Ge   16.73581   8.13774  20.07661   0.07743  -0.55740   0.26581
Ge    8.04495   7.51600   8.87842   0.18140  -0.26519   0.27033
Ge    2.25615  20.04106  13.23873  -0.22700   0.53434  -0.23712
Sb   15.87100  19.65217   8.00065   0.38914  -0.24939  -0.12350
Sb    9.99479   5.29060  14.75743   0.04882   0.20232  -0.22136
Ge    7.29099  11.08245   4.13150  -0.06823  -0.35150  -0.12133
Sb   19.87437  17.59054   4.43945   0.56318   0.71289  -0.63948
Ge   16.11713   3.98806  19.42296   0.03234  -0.61808   0.04064
Sb   11.74418  13.49341  11.16494   0.06276  -0.07822   0.05939
Ge    5.21695   7.74791  18.46764  -0.68932  -0.52262  -0.35277
Ge   18.76851  11.63532   3.70263  -0.54695   0.25829  -0.11773
Ge    5.19477  15.73516  18.05750   0.36683  -0.08568  -0.39710
Ge   12.63459  16.68522  14.62683  -0.01010   0.02561   0.36390
Ge   19.01357   1.03619  11.69767  -0.14519   1.02972  -0.83815
Ge    3.81356  20.12763   1.82113  -0.62768   1.29745   0.68880
Sb    8.37863  18.42662   3.62406   0.98553  -0.56502   0.93498
Ge   16.77849   5.22328   5.44415  -0.62673   0.79973   0.39333
Ge   11.68981  18.15063   3.43636   0.96400  -0.85584   0.44632
Ge    6.36830  14.72173   2.80219   0.03907  -0.25370  -0.45132
Ge    7.59305   7.67635  17.83750   0.82924   0.23607  -0.83625
Ge   14.43308  15.25631   4.01790   0.47775   1.74819   1.02889
Sb    1.57671  11.11999  10.92977  -0.69446  -0.17933  -0.08196
Ge   14.67002  13.56938   2.49689   0.53952  -1.49043  -1.53019
Ge    6.54900   5.65795   2.60284   0.23731   0.00621  -0.52154
Ge    9.15093   9.66593  18.50604  -0.29223   0.24023  -0.24589
Ge   10.46181  18.05801  16.16607   0.62317   0.37622  -0.28360
Ge    8.59375  13.06157  11.76742  -0.53633   0.22073  -0.03864
Ge   18.22963   0.26490  15.98903   0.18696  -0.00811   1.05762
Ge    0.63752   5.66266  12.28333   0.18862  -0.21726  -0.32639
Ge    0.25991   8.79305  12.10923   0.37159  -0.34523  -0.07251
Ge    2.05179  18.85498   0.96925  -1.71436  -0.21142  -0.47467
Ge   15.27763  17.91215   2.34548  -0.85885  -1.08955   0.01849
Sb   19.09842  15.63375   9.22445  -0.38956  -0.11910   0.31305
Ge   12.62075  18.41637   6.70602   0.85080   0.60736   0.17533
Ge    0.21022  17.63248   8.02916   0.15329  -2.27167   0.06529
Ge    6.05171  13.82773  20.04011  -0.14555   0.43076   0.68468
Ge    1.15229  15.21117   6.66507   0.38867   0.76437   0.08259
Ge   17.66151  11.53272  17.59626   0.20518  -0.03247  -0.70801
Ge    8.74161   8.12996   2.78420   0.39053   0.12988   0.19037
Sb   13.04791   1.19249   4.61366   0.09393   0.23975  -0.42767
Ge   14.82768   5.79977   1.26419   0.24244   1.66137   0.62840
Ge   18.79951  12.06973  10.62894   0.16855  -0.31869  -0.52243
Sb   13.69531   3.62721   0.50294   0.26167  -1.54507   0.49420
Sb   19.21503   4.39089   6.44304  -1.28260   1.37604  -1.03918
Sb   10.55951  18.56345  13.25971   0.54066   0.03933  -0.07128
Ge   14.39050  12.56073  13.96666  -0.06173  -0.43219   0.30450
Ge    8.93380   3.01979   0.78755   1.47181   0.51954  -1.23586
Ge    5.80390   6.19320   9.65225  -0.03060   0.29052   0.34309
Ge   17.19505  10.85083   8.87471   0.05809  -0.37811   0.06455
Ge   12.15646  13.42765   7.73946  -0.13257   0.09408   0.21036
Ge   16.83796  16.42664  20.31033  -0.37506   0.27065  -0.04003
Ge    4.57692  18.41977   8.87306   0.36720   0.36324   0.09702
Sb   11.78882   3.54632  13.07722   0.23564  -0.04004  -0.05063
Sb    3.88477   0.90461   4.55528  -0.65488  -1.32743   0.15375
Ge   17.81719  18.40374  18.04827  -0.20684  -0.13177   0.70158
Ge   13.87376  12.79119   5.17335   0.05233   0.50005   0.49213
Ge    3.96210   1.17719  14.57580   0.10874  -1.91977  -0.19482
Ge   12.60994   0.74902   1.38873  -0.28953  -0.01236   0.04800
Ge   14.03319  15.09622  10.92812   0.14140   0.10286  -0.11339
Ge    8.39519   0.44292  19.95414   0.53926   0.34782   0.46890
Te    0.01357  10.06902   0.95399  -0.54215  -0.06300  -0.18668
Te   16.15278  16.57149  14.35429  -1.22103  -0.56855  -0.58254
Te    4.29982   4.33589   7.48734  -0.42809  -1.13300  -0.55315
Te    4.61172  13.19329  15.11863  -0.20711  -0.58036   0.33691
Te   18.83239   3.63366  16.42637  -0.03185  -0.21489  -1.26397
Te    8.71422  10.04024  15.13464  -0.02771  -0.19167   0.28559
Te   20.18713  13.10162  17.88357  -0.12332  -0.08109  -0.66001
Te    7.46966  15.62960  13.51408   0.43743  -0.65098   0.38835
Te    4.94004   7.52166   7.28039   3.85662   2.29233   5.14902
Te    6.00643  19.07443   2.38302   0.42422  -0.45015  -0.34848
Ge   16.46764   5.35693  13.42433   0.09357  -0.34615   0.14945
Te    3.59230   6.74606   0.75853  -0.96114   0.43503  -1.27761
Te    6.53294   8.03598   0.68926  -0.02837   1.43530   0.45688
Te    7.83622  18.78237  12.19614   0.17460   0.91169  -0.27313
Ge    2.07913   2.58008   3.27563  -1.33826   0.04900   0.02578
Te   14.49496  11.56721  17.31142  -0.18396  -0.69571  -0.20212
Ge    2.41944  19.35869  10.58903  -0.34796   0.27416  -0.16847
Te   13.74855   5.62586  12.16901   0.42813  -0.08660  -0.00918
Te    4.92549   3.40289   3.18446   0.87523   0.22364   1.05071
Te    1.80478  14.24233  11.31766  -0.41046   1.05788  -0.39394
Te    2.29120  16.13901   4.17720   0.51459   0.10969  -0.10856
Ge   16.58540  19.83511   1.76441   0.25080   0.50267   1.64188
Te    0.71070  20.08887   7.67154  -0.24640   1.54615   1.35534
Te    7.44925   9.34260   6.33406   0.57382   0.04827  -0.68022
Te    5.82030  16.66765  11.30223  -0.99721  -0.46483  -0.41460
Te    0.04064   4.10593   1.73670   2.60910   0.70438  -0.36624
Te    1.05173  12.83400   0.40844   0.62534   0.66553   1.20488
Ge   13.06243  11.06016   3.62399   0.52008  -0.52736  -0.56419
Te    8.55398  18.26653  18.55882  -1.50120   0.80010  -1.44295
Te    8.52961  11.56837   8.91713  -0.00741  -0.39114   0.18207
Te   18.55413  18.98126   0.53983   1.15246  -0.17056  -0.56386
Te   11.17734   8.10850  14.23064   0.16118  -0.02967   0.00304
Te    6.53616  13.77113   9.84279   0.06805   0.00295  -0.06269
Te   20.20580  16.47730  12.85306   0.33847   0.32392  -0.97065
Te   10.08796  13.57046  16.32718  -0.15462  -0.32058  -0.06507
Ge    9.93935  16.11752   2.75178  -0.08872  -0.02130  -0.22800
Ge   18.51152   4.85003   9.98586   0.25050   0.56386  -0.56678
Te    1.51916  10.48835   3.94549  -0.74573   0.27064  -0.82053
Ge    7.54664  16.09444   0.89561   0.50105  -0.37511  -0.36107
Te   11.06824  16.34579  18.72613   0.31518  -0.00929  -1.56412
Te    2.73863  11.48212  18.26021   0.20407   1.49707  -0.56188
Te    9.24475  16.58622   7.03310  -0.17911  -0.22372   0.04718
Te   13.78616  14.48231  16.17554  -0.04990   0.39432  -0.68229
Te   14.67473   0.30170  11.33439   0.26107   0.04588   0.55655
Te    6.31189   6.71418  14.65051  -0.34376  -0.13689   0.33558
Te    6.89083   0.70833  17.31313   0.43460  -0.01176  -0.59290
Ge    6.01819   1.81703  13.40752   1.14282  -0.56313  -0.14719
Te    5.69416  18.31925   6.20126   1.39437  -0.40159  -0.02874
Te   11.51641   9.65761   5.93721   0.33255   0.31666  -0.14843
Ge   17.77163  11.22355   6.10996  -0.88129   0.29779   0.37172
Te   14.59657   2.28593   7.52139  -0.18396   0.53573  -0.26534
Te    8.38296   4.57062   6.27140  -0.36871   0.54348   0.05778
Te    3.62869   2.38380   0.69533  -0.65397   1.16984  -0.15472
Te   18.40593  13.74843  12.78184  -1.32195   0.04552  -0.24319
Ge   14.51728   3.15210  10.47059   0.28179   0.17100   0.00585
Te    0.25894  16.48058   1.01172   0.01798  -0.22276   0.16372