   300
config_type=liqu Lattice="   20.31669   0.00000   0.00000   0.00000  20.31669   0.00000   0.00000   0.00000  20.31669"  Properties=species:S:1:pos:R:3:forces:R:3 energy=-40543.0500 pbc="T T T"
Ge    1.62168   0.43896  20.04240  -0.32813  -0.29261   0.15401
Ge    7.10230   3.71945  11.94537  -0.17541  -0.95888  -0.22315
Ge    9.75140  14.28481   9.07933  -0.07509  -0.42767   0.07147
Ge   19.91557   0.21028  18.08050  -0.12812   0.26652  -0.03917
Ge   10.31889  20.13780   2.69218   0.06442   0.05189  -0.27583
Ge    7.90875   2.52926   8.58600   0.43984   0.86366   0.35684
Ge   12.57871   3.65748  16.87571  -0.03804   0.11612   0.52262
Ge    8.64245  12.54028  18.81723   0.65429  -0.55664   0.60033
Ge    4.59029   3.21895  15.46401  -0.92401  -1.00836   0.45502
Sb   16.23527   1.14293  18.15455   2.11261  -1.17985  -4.64105
Sb    1.78019   5.51283  14.81526   0.19008  -0.46274   0.23206
Ge    0.10726  17.35951  18.14227   1.80242   0.71404   1.96208
Ge   12.30340  14.21886   3.88515   0.05020   0.34513  -0.96857
Ge   10.23934  18.75194   9.73377   0.46910  -0.58569   0.40123
Ge    5.54923   4.92488  20.07978   0.43603  -0.14422  -0.35805
Sb   16.97418   5.97014   1.47156  -0.66193   0.37870   0.06830
Sb    3.66466   6.02801   3.34845   0.33998   0.09327   0.24348
Sb   11.28941   5.56853   2.58571  -0.27315  -0.30290  -1.07848
Ge   10.19509   2.14637   7.62789  -0.82567   0.38040   0.09247
Ge    6.99243  11.84148  13.37508   0.08725   0.20444   0.12566
Ge   11.29298   2.55794  19.16692  -0.24149   0.34743   0.14911
Ge   14.06183   7.87046   9.27741   0.00183  -0.29271   0.27378
Ge   14.72943  12.77394  11.39603  -0.12040  -0.13261   0.21457
Ge   18.75022   6.53052  13.89261  -0.40525  -1.24298  -1.93396
Sb    1.22173  12.58228   8.28905   0.52954   0.42235   0.02148
Ge   15.84179   8.93511   7.41385   0.81505  -0.17932  -0.25950
Sb   16.34894   1.57429  13.85951   0.15643   0.02790   0.07635
Ge   17.93302   8.48015   9.59059  -0.00759   1.17064  -0.67042
Ge   12.84395   1.13641  17.26419   0.46240  -0.49369   0.91495
Sb   17.98611  17.88461  15.30483   0.42875   0.19039  -0.25656
Ge   19.95618  10.42736   6.57024  -0.22614   0.23474  -0.33972
Ge   11.70795   3.41242  10.14921   0.49942   0.74701  -1.34398
Ge    3.79070  14.62093  19.96536   1.90764  19.74994  41.61646
Ge    9.94621  11.34556   0.86448   1.07421   0.29710   1.37821
Sb   12.15732  15.58824   6.17850  -5.15437   3.94658  -0.19999
Te   10.52986   8.58426   0.40303  -0.70335  -0.05364  -0.08329
Sb   11.01363   9.42273   8.90235  -0.31670  -0.22693   0.15635
Sb    3.14947   1.37817  17.95140  -0.18647   1.18832   1.07605
Ge   18.75423   1.27083   9.10158  -0.85491  -0.33678   0.00939
Ge   13.54448  10.33126   7.99236   0.51914  -0.92605  -1.13635
Ge    7.70023  12.36153  16.13694  -0.12119   0.52310  -0.33438
Ge   16.07933   8.49187  17.07111  -0.56959   0.35616   0.46708
Ge    1.46061   4.50643  18.66643   0.32590  -0.43155   0.14573
Ge    3.05681  10.28776   8.20003  -0.49564   0.13777   0.71514
Ge   16.90656  19.19302  10.29431  -0.27772  -0.42623   0.15559
Ge   15.39346  16.81896   8.57175  -1.48727   0.14222   0.73687
Ge   17.00246   8.20227  20.02853  -0.22808  -0.15512  -0.38147
Ge    8.15171   7.20447   9.07880  -0.18749   0.12574  -0.38914
Ge    2.57984  19.69875  13.07460   0.54740   0.15079  -0.56843
Sb   15.80552  19.35063   7.89016   0.09606  -0.57394  -0.15837
Sb   10.10757   5.31571  14.75427   0.03290  -0.45111  -0.05323
Ge    7.41615  11.04739   3.82775  -2.35200  -0.51434   7.76035
Sb   19.29167  17.00582   4.56777   0.61463   0.15760   0.13640
Ge   16.43901   4.04629  19.59922  -0.76721   0.73390   0.30649
Sb   11.79988  13.43865  11.18503  -0.49345   0.23904   0.14211
Ge    5.09070   7.36376  17.95399  -0.05988  -0.35195  -0.52066
Ge   18.22122  11.79545   3.82086  -0.05701   0.22535   0.11797
Ge    5.34170  15.65116  17.69425   0.72556   0.37752  -0.02057
Ge   12.62586  16.65390  14.82996   0.05642  -0.28640   0.33612
Ge   18.15606   1.25802  11.43748   0.19095   0.09240  -0.55824
Ge    3.92410   0.13796   1.65781  -0.77997  -0.09536  -0.18307
Sb    8.69757  18.13911   3.98974   0.16657  -0.08578  -0.03651
Ge   16.48204   5.74112   5.71538   0.26642  -0.06707  -0.64107
Ge   12.32636  18.13575   3.67210  -0.25133  -0.39470  -0.26028
Ge    6.30495  14.57535   2.48323   0.01149   0.01362   0.05327
Ge    7.69289   7.74822  17.30610  -0.19386  -0.27679   0.36879
Ge   14.64682  15.76598   4.28859   0.15644  -0.10998  -0.12682
Sb    1.37888  10.87036  10.85993   0.06011   0.07388   0.14928
Ge   14.95023  13.34802   2.72890   0.01687   0.08720   0.07261
Ge    6.95046   5.70350   2.70834   0.12391  -0.04683  -0.05097
Ge    8.96191   9.95078  18.14804  -0.17774   0.48912   0.20670
Ge   10.90010  18.19559  15.99938  -0.02001   0.38378   0.37765
Ge    8.21427  13.27675  11.67517   0.45638   0.43209   0.10838
Ge   17.85384   0.46766  16.10438  -0.04169  -0.07842   0.82550
Ge    0.53922   6.28637  11.81714   1.48109  -0.67235   0.43670
Ge    0.28576   8.51458  12.31377  -0.22788   0.67120  -0.14624
Ge    1.89230  18.71552   0.97649  -0.12874   0.59270   0.59377
Ge   14.83926  17.38526   2.24621   0.16464   0.75730  -0.21458
Sb   18.46086  15.88836   9.16033  -0.43170  -0.34218   0.41375
Ge   12.98999  18.23985   6.44330  -0.38910  -0.51864   0.12031
Ge    0.15068  17.10125   8.00222   0.48969  -0.59070   0.38201
Ge    5.88646  13.69430   0.14542   0.23230  -0.45718   0.48155
Ge    1.50701  15.39946   6.50577   0.02768  -0.15996   0.13247
Ge   17.35780  11.65742  16.97604  -0.26369  -0.45257  -0.45580
Ge    8.94900   8.27248   3.03131   0.10066  -0.50717  -0.14749
Sb   12.99648   1.11450   4.42316  -0.08728  -0.13631   0.12707
Ge   14.52163   6.48761   1.40118  -0.22254  -0.05665  -0.36047
Ge   18.36230  11.74562  10.74586  -0.64421   0.19084  -1.09082
Sb   13.51354   3.90472   0.79085   0.07655  -0.34962  -0.01568
Sb   18.70100   4.89161   6.55011  -0.34222  -0.41274  -0.01955
Sb   10.84538  18.47226  13.20895  -1.19693  -0.43264  -0.33905
Ge   14.35996  12.25948  14.00329  -0.09729   1.30284   0.50383
Ge    9.22209   2.90911   0.69466   0.29223   0.29267  -0.35919
Ge    5.74190   6.20523  10.22635   0.49017  -0.08593  -0.62503
Ge   17.28621  10.64395   8.84717  -1.28142   0.25587  -0.68685
Ge   12.14506  13.39474   7.75945  -0.29295  -0.00712  -0.07185
Ge   16.34053  16.67411   0.08798  -1.04043  -0.12148  -0.44059
Ge    4.86021  18.08488   9.23343  -1.22294  -0.03069  -0.50296
Sb   11.86305   3.49143  13.10898  -0.18657   0.52275   0.43135
Sb    3.85080   0.74217   4.72809  -0.10853   0.01357   0.11208
Ge   17.38260  17.64321  18.60120   4.34289  -1.16603   3.37352
Ge   13.99859  13.14253   5.47891   0.34678  -0.07972  -0.44333
Ge    4.23528   0.49813  14.27210   0.15715  -0.41134  -0.78628
Ge   12.90486   0.82103   1.66038  -0.09670   0.08389  -0.64355
Ge   14.06124  15.18748  10.88198   0.45695  -0.36945   0.07731
Ge    8.58549   0.50900  19.70001   0.25672   0.06641  -0.11265
Te   19.82889  10.08239   0.61984  -0.26423   0.28798  -0.57626
Te   15.71106  16.40002  14.18985  -2.30467   0.81351  -0.90042
Te    4.61513   4.82362   7.46045   0.75068   0.19355  -0.04175
Te    4.44969  12.97640  15.32559  -0.66804  -0.92476   0.59817
Te   18.95124   3.97714  16.01580   0.71059  -0.22805   0.14138
Te    8.59076   9.90368  15.24856  -0.14461  -0.21744  -0.42719
Te   20.01955  13.16219  17.64561  -0.12045  -0.59494  -0.26708
Te    7.57835  15.41014  13.60329   0.50673   0.12663   0.00910
Te    5.60970   7.94650   8.30644  -0.08320   0.22813  -0.33315
Te    6.24942  18.61329   2.49460  -1.08480  -0.70117   0.97193
Ge   16.59217   5.15089  13.65234  -0.12853   0.18677   0.49466
Te    3.65700   6.79965   0.53592   0.52303   0.04418   0.46664
Te    6.94307   8.48808   0.48985   0.43685  -0.08877  -0.19871
Te    8.10959  18.70887  11.89376  -0.17965  -0.26114  -0.25266
Ge    2.09536   2.94179   3.54372   0.04686   0.18798  -0.48558
Te   14.44725  11.27986  16.92798   0.49323  -0.25809   0.09812
Ge    2.65428  19.02980  10.42423  -1.36505   1.36263   0.23919
Te   13.87914   5.64668  12.09956  -0.06292   0.02110   0.15515
Te    5.00467   3.53575   3.80420   0.26749  -0.19939  -0.24053
Te    2.09044  14.70821  11.47617   0.29712  -0.25972  -0.03723
Te    3.03395  16.18082   4.35938   0.33944   0.61849   0.25808
Ge   16.62718  19.52766   2.44935  -0.09377  -0.04566  -0.06432
Te    0.31138  20.01390   7.88310  -0.85180  -0.00601   0.63032
Te    7.74884   9.39387   6.09379   0.22883  -0.08888   0.02111
Te    5.41048  16.40461  11.14518   0.08927   0.00670  -0.27199
Te    0.14674   4.40848   1.49903  -0.66191   0.28740  -0.13222
Te    1.44692  13.09597   0.49712  -0.00381   0.00513   0.42574
Ge   13.09748  11.00316   3.76138  -0.17613  -0.38849   0.12277
Te    8.20514  18.02902  18.10962   0.43575  -0.26578   0.49467
Te    8.43685  11.47299   8.97794   0.10797  -0.28210  -0.30235
Te   18.64980  18.59267   0.78721   0.12535  -0.06763  -0.41649
Te   11.21912   8.14720  14.26034  -0.20055  -0.03276  -0.28355
Te    6.58422  13.84823   9.76451  -0.06407  -0.08991   0.04830
Te   20.28217  16.33915  12.72084  -0.31105  -0.00255   0.01144
Te   10.02932  13.52342  16.20084   0.22069  -0.55710   0.23507
Ge    9.86165  15.77940   3.07382   0.28171   0.24512   0.31236
Ge   17.98656   5.30178  10.06822  -0.61519  -0.70164  -0.99178
Te    1.60560  10.77265   4.35439   1.49634  -0.09608  -1.72230
Ge    7.70040  15.95714   0.64034   0.36610   0.19980   0.19412
Te   11.24885  16.32952  18.33528   0.29755   0.13226  -0.27722
Te    3.15783  12.04685  18.33787   0.07767  -0.01780  -0.67906
Te    9.13122  16.42563   6.99667   1.43085   2.29848  -7.39029
Te   13.77960  14.61033  15.84636  -0.08578   0.43177  -0.12990
Te   14.91770   0.36296  11.54958   0.15248  -0.20379  -0.65042
Te    6.16674   6.71305  14.77815   0.41984  -0.49577   1.09579
Te    7.22035   0.88619  16.86773   0.16875  -0.00740   0.33255
Ge    6.29805   2.14923  13.49513  -0.58046  -0.91168  -0.06400
Te    6.23126  18.04369   6.27115  -0.17850   0.48130   0.21036
Te   11.65214   9.79090   5.92770   0.04541  -0.58230   0.35171
Ge   17.14771  11.26773   6.27451   0.15670   0.51554   0.71908
Te   14.60429   2.64386   7.35402  -0.45765   0.14689   0.21587
Te    8.25507   4.67675   6.25403  -0.21486  -0.95178  -0.39451
Te    3.53990   2.77957   0.92553  -0.20188  -0.30727   0.25970
Te   18.02774  13.66053  12.76210  -1.32081  -0.19945  -0.09288
Ge   14.80053   3.33749  10.55360   0.95355  -0.13730   0.40465
Te    0.23060  16.35722   0.97259  -0.90230   0.06614   0.17395
Ge    5.91774  12.02791  18.13998   0.00744   0.51614   0.37736
Te    4.50991  12.55717  12.24566  -0.22349   0.48641  -0.14809
Te    2.91533   8.96695  18.52175   0.34213   0.12595   0.11362
Te   13.46505   9.97026  12.45599  -0.10991  -1.07268   0.42947
Ge   16.25611   3.97443  16.50206  -0.43236   0.07019  -0.00774
Te    8.53196  13.24464   2.12315  -0.15380   0.19245   0.04518
Te   19.63683   7.78452   3.79064  -1.05407   1.01106   0.34611
Te   17.79852  14.09269   6.67950   0.33856  -0.16244   0.14941
Te   13.67449   6.76568  16.71602   0.29629  -0.23214  -0.91477
Te    0.24332  12.89183  13.94789  -0.27428  -0.49906  -0.36185
Te    1.12229  16.53312  15.84432  -0.11992  -0.46320  -0.12723
Te    5.22531   9.36020   3.19734   0.64610  -1.09813  -0.11189
Te    8.30803   8.20707  11.46460  -0.20904   0.04699  -0.19941
Te    8.33643   6.07834  19.99987  -1.81074  -0.06415  -0.60734
Te   18.68598   2.20558   4.57973   0.27578   0.27111   0.01532
Ge   12.13831   5.73928  18.95649   0.16065   1.31043   0.47168
Ge    3.36598  14.20266   8.12506  -0.06032  -0.54136   0.08892
Ge   10.20543   1.16159  16.23793  -0.13948  -0.34417  -0.41593
Ge    1.51100   3.12616   6.28656   0.36725   0.09784  -0.16261
Ge    4.96085  18.76949  18.50738   0.09797  -0.03926  -0.18841
Ge   10.86346   5.61229   6.94774  -0.58958   0.40406   1.26431
Ge   17.79633  14.56434   3.26295  -0.67063   0.58901   0.17828
Ge    5.54112   3.67301   9.87387   0.34148  -0.55050  -0.36818
Ge    2.35563  18.93645  17.33320   0.29087   0.40705  -0.90298
Te    0.79018  10.00337  15.33947  -2.12047  -1.52934   0.88466
Ge    4.06796   8.54458  15.92788   0.24218  -0.09567   0.55516
Ge    2.02974   1.99518  11.05690   0.49645  -0.84639  -0.56917
Ge   14.80652   8.53352   3.68038  -0.04267  -0.24979   0.07053
Ge   17.92294   8.44234  12.38197  -0.16700   0.02156   0.30148
Ge   16.99914  10.10475  13.93980  -0.55410   0.09110   0.33918
Ge   16.29291   6.32035   8.14089  -0.06315   0.04260   0.95213
Ge   11.59502  12.58091  17.99452  -0.06088   0.18144   0.15893
Ge   11.71583   4.11668   5.19279   0.21028  -0.17778  -0.20935
Ge    2.38519  15.08905  17.84687   0.54709   0.43603  -2.14137
Ge    7.33995  19.52383  14.26588   1.15741  -0.62982  -0.31016
Ge   10.64892   7.23453   4.71671   0.09492   0.28149   0.43999
Ge   15.33350  16.98745   6.21564  -0.23744   0.15176  -0.68246
Ge   16.92280   2.97195   1.84011  -0.49527  -0.15893   0.19745
Ge    0.80746   2.18911  13.12621  -0.19606   0.16344  -0.05448
Ge    1.65471   8.45475  10.00874  -0.13336   0.25436   0.34529
Ge   18.35857   8.85690  15.67627  -0.55769   0.06783   1.42368
Ge   10.44831  17.48044   0.94876   0.69295  -0.34062  -1.02828
Ge   14.25082   8.47811  19.21563   1.70636  -2.07395  -2.81316
Ge    3.91818  15.64227  15.28330   0.30355  -0.27191   0.31824
Ge    4.10501   4.70943  17.78700   1.04086  -0.16199  -0.30792
Ge    4.90730  19.14222  15.55759  -0.67490   0.66328   0.66113
Ge   14.90063   4.73281   4.09162   0.17178  -0.09839   1.33650
Ge    0.23291   3.35496   9.01294   0.62181   0.54325  -0.65915
Ge   12.79672  18.91242  17.30497  -0.05626   0.11515  -0.37282
Ge    8.29240   3.26225  14.48078   1.41206  -0.53832   0.47464
Ge   17.81363  12.93573   1.31684  -0.04621   0.31451   0.40628
Ge   17.33864   9.47009   2.94911   0.17418   0.49845  -0.62210
Ge   19.33547  18.62858  10.50399  -0.16078   0.00353   0.85561
Ge    1.50158   5.79433   9.17119  -0.31209  -0.08467   0.35969
Ge   14.34454   3.24145  14.47114  -0.13567   0.46336   0.14468
Ge   14.71544   9.63419  14.92157   0.76232  -0.07839   0.30138
Ge   17.35827   8.46828   5.18833  -1.29923   0.08674   0.62856
Ge   14.83747  19.65419  16.13590   0.52929  -1.27248  -0.67779
Ge   17.38364  19.70817   4.93052  -0.40098   0.51681  -0.25769
Ge    5.58489  10.45564   8.75995  -0.51562   0.27663   1.29539
Ge   17.46941  16.61124   6.55788  -0.30221   0.03842  -0.35410
Ge   13.27237   6.69041   4.42110   0.38732  -0.54261   0.01883
Ge    4.36827   1.51975  11.21011   0.15153  -0.03268  -0.35062
Ge    2.70618  17.25754  19.56716   0.28443  -0.33743   0.32227
Ge    7.01631   6.92147   5.26431   0.18550   0.12603   0.01276
Ge   16.74922  10.52117   0.72636   0.45742  -0.34593  -0.07702
Ge   18.96882   9.33365  18.61246  -0.22647   0.21546  -0.89393
Ge    7.71061   3.53933  19.03148  -0.37579  -0.01675  -0.05176
Sb    6.49427   1.96175   6.47105   0.13233   0.09847  -0.86360
Sb   13.03326  18.29819   0.39726  -0.57722   0.23952  -0.07610
Ge   15.50672   1.98434   3.42564  -0.03879   0.23118  -0.08747
Ge    1.06278   7.76857  15.80052  -0.06122   0.05387   0.06785
Ge    7.85676  15.17182  18.53146  -0.03113  -0.46336   0.29392
Ge   18.68615  15.15885  16.36099   0.40710   0.17466  -0.14862
Ge    3.10500   5.48856  11.12245  -0.11323  -0.37248  -0.05620
Ge   10.12933  10.50217   3.28332  -0.73327  -0.12343  -0.19985
Ge    6.11529   9.13533  13.25077   0.21460   0.44260  -0.20066
Sb    0.28816   6.74703   0.51495  -0.76290   1.14796   4.44586
Ge    3.81786   3.74875  12.72475   0.08035  -0.31556   0.54569
Sb   10.32894  19.48490   5.94851  -0.05230   0.11756   0.34256
Ge   14.94314  18.96117   4.70112  -0.04738   0.03617   0.04662
Sb    4.28431   0.67579   8.08262   0.07124   0.49700   0.31787
Ge   11.38436   0.66875  11.97571   0.77060  -0.13105   0.09182
Ge   19.96576   7.11680  17.68444  -0.06399   0.74840   0.40868
Ge   14.36544  11.11035  20.20092  -0.52289  -0.45550  -0.15200
Ge   17.07819   6.47504  18.12636   0.37706  -0.12046  -0.28742
Ge   10.19357  10.63728  11.79402  -0.06497  -0.10961  -0.27826
Ge    3.72377   6.77922  13.27892  -0.12912   0.60557  -0.18971
Ge   19.99500   1.02984   1.38956   0.02957   0.90378   1.72655
Sb    0.88330   6.99102   6.84330   1.28954   0.01722   0.66526
Ge    0.43094  14.22084   2.64274   0.17154  -0.02632   0.42832
Ge    5.81822   0.66487  20.14956  -0.01697  -0.05854  -0.27171
Ge    9.07475   4.16857   3.53093   0.20402   0.30871  -0.01167
Ge    6.88092   0.74872  10.49309  -0.61592  -0.45769  -0.48988
Ge   11.16232  14.45522   0.15035   0.23645  -0.08161  -0.29835
Sb   12.26172   0.55175   9.17739   0.06174   0.40768  -0.35028
Ge    2.80155  17.11577  12.40151   0.10626  -0.06041   1.18579
Ge   14.20370   5.35058   6.64866   0.75247  -0.02502  -0.22389
Ge    3.03979  13.05600   6.04112  -0.22395  -0.16057   0.09290
Ge   19.29326   5.06918  18.41788  -0.66191   0.12197   0.35939
Ge    0.78252   0.12552   4.95347   1.20546   0.72848  -0.83276
Sb   10.55716  14.99218  13.72632   0.00699   0.16913  -0.02774
Ge   12.15124  16.24639   9.73726  -0.65418  -0.34613   0.32732
Ge    6.28450  16.87740  15.57941  -0.30976   0.08093  -0.30493
Ge    9.92671   5.11420   9.45752   0.02233  -0.19774  -0.27221
Ge   18.75548  14.76502  19.99384  -0.39296  -0.12056  -0.45479
Ge   19.23220  19.34733  12.92169  -0.41546  -0.23585  -0.27785
Ge    5.20788  17.21841   0.49648   0.08372  -0.39656  -0.18687
Ge    3.41766   6.43018   5.87406   1.38396   0.38654   0.36696
Ge    9.37515   3.71542  17.25076  -0.20421   0.29790   0.51501
Ge   18.42355   2.34044  20.05760   0.00628  -0.14698  -0.26722
Ge    3.71017   9.58596   5.85292   0.48860   0.29576   0.11741
Sb   10.04285   6.61922  17.29547   1.36356   1.03145   0.03272
Ge   10.04754   1.78785   4.39354  -0.32595  -0.03739  -0.18695
Ge   20.26597  13.31361   5.53509   0.55417  -0.40132   0.01132
Ge    6.98980  11.19690   0.08000  -0.29990   0.06466  -0.49687
Ge    5.21228  11.68930   5.20054  -0.04619  -0.20897  -0.40267
Ge   17.11850   3.10223   8.45064  -0.10865  -0.10601   0.17198
Sb   16.45620  13.74986  18.84181   0.25055   0.13534   0.36333
Ge    3.12784   9.72785  13.50745   0.09561   0.55366  -0.08293
Ge    3.12580  16.12145   9.35826   0.06160   0.14367   0.28240
Ge   11.25089   9.71070  16.78644   0.51640   0.25718   0.20236
Sb    3.19210  18.15276   6.45852   0.07629  -0.10343  -1.44742
Ge   15.32669   0.85881   0.75295   1.61922  -0.32589  -0.37115
Sb   11.60864   7.00561  10.79033   0.38548   0.05966   0.21908
Ge    9.45049   1.02358  13.81808  -0.44669  -0.25703   0.14914
Ge    1.06680   5.10296   4.45791   0.36420  -0.18267   0.25255
Ge    6.48281   3.73693  16.46068  -0.31536  -0.31993   0.15709
Sb    0.64072   0.19141  15.08614   0.07470   0.08587  -0.66771
Ge   12.60624  12.41611   1.19654   0.54343  -0.51284  -0.02565
Ge   11.28544  20.14920  18.88582  -0.00455   0.05466   0.45032
Ge   14.07685  14.96814  19.94758  -1.45870 -18.69562 -41.72310
Ge   13.59155   8.43066   1.52667  -0.50299  -0.06588  -0.23570
Sb    7.51744  18.30628   9.05261   0.42097   0.06977   0.14145
Sb    7.43382   2.01112   2.83395   0.47766  -0.40876  -0.05609
Sb    3.91417  11.98687   2.25092   0.35180  -0.38034  -0.25900
Ge    4.06881   9.06182  10.57476  -0.19234   1.13519   0.62738
Ge   17.43923   3.45029  11.93486  -0.10670   0.14652  -0.03249
   300
config_type=liqu Lattice="   20.31669   0.00000   0.00000   0.00000  20.31669   0.00000   0.00000   0.00000  20.31669"  Properties=species:S:1:pos:R:3:forces:R:3 energy=-40544.7050 pbc="T T T"
Ge    1.67968   0.35430  19.97077  -0.31522  -0.31884   0.14436
Ge    7.14134   3.75153  11.90836  -0.15179  -0.96837  -0.23176
Ge    9.79097  14.29831   9.08509  -0.06211  -0.41138   0.04615
Ge   19.86233   0.16976  18.08758  -0.14038   0.26016  -0.06905
Ge   10.32223  20.14846   2.68188   0.05774   0.03047  -0.28199
Ge    7.94367   2.50047   8.64262   0.45387   0.90546   0.36192
Ge   12.54347   3.63820  16.83161  -0.04078   0.10857   0.51894
Ge    8.67617  12.46264  18.81628   0.42975  -0.34548   0.40188
Ge    4.69322   3.22436  15.38034  -0.95107  -1.03292   0.45039
Sb   16.15870   1.16013  18.06126   1.58931  -0.90450  -3.51705
Sb    1.74268   5.53005  14.74635   0.19459  -0.44823   0.24244
Ge    0.04059  17.32616  18.04184   1.85165   0.72335   1.90085
Ge   12.30300  14.11439   3.84341   0.06022   0.33191  -0.99300
Ge   10.25314  18.71777   9.74844   0.46419  -0.56764   0.39749
Ge    5.50971   4.91673  20.09611   0.42865  -0.14911  -0.33900
Sb   16.92207   6.01105   1.50260  -0.66785   0.37705   0.06859
Sb    3.67454   6.13293   3.35843   0.34471   0.08734   0.23739
Sb   11.33907   5.54514   2.63147  -0.25538  -0.30853  -1.10353
Ge   10.17999   2.19606   7.64839  -0.83627   0.39714   0.09329
Ge    7.00804  11.83985  13.41790   0.10473   0.19492   0.12015
Ge   11.31039   2.53910  19.10573  -0.21940   0.37290   0.18103
Ge   14.02899   7.86478   9.31246   0.01416  -0.31445   0.31009
Ge   14.68988  12.77462  11.38452  -0.12636  -0.11116   0.22967
Ge   18.73696   6.53491  13.93829  -0.37659  -1.27255  -1.95117
Sb    1.25200  12.53571   8.32036   0.55552   0.39566   0.00724
Ge   15.82084   8.93885   7.41655   0.83055  -0.17162  -0.26834
Sb   16.28762   1.59664  13.80109   0.13869   0.04176   0.05562
Ge   17.89119   8.46120   9.60320  -0.01909   1.17570  -0.68198
Ge   12.88131   1.13919  17.21223   0.45591  -0.51837   0.91885
Sb   17.94910  17.90754  15.30034   0.45756   0.17386  -0.27737
Ge   19.90373  10.37004   6.63303  -0.25439   0.21656  -0.34993
Ge   11.72019   3.44198  10.15709   0.51935   0.76517  -1.37171
Ge    3.79096  14.63556  19.98590   2.82906  19.34538  41.82367
Ge    9.97132  11.33315   0.85701   1.08283   0.30506   1.40459
Sb   12.13796  15.55454   6.21554  -4.96135   3.32490  -0.85607
Te   10.53712   8.59678   0.41069  -0.71518  -0.08815  -0.08018
Sb   11.04080   9.41408   8.93898  -0.31809  -0.22036   0.16346
Sb    3.04501   1.39985  17.96268  -0.17094   1.20830   1.10372
Ge   18.73913   1.35773   9.14716  -0.86533  -0.34547   0.00915
Ge   13.56468  10.30520   7.97984   0.50542  -0.92499  -1.12584
Ge    7.68839  12.34888  16.16412  -0.11801   0.52840  -0.33387
Ge   16.00187   8.58016  16.95513  -0.57802   0.37346   0.49568
Ge    1.53304   4.44738  18.64473   0.32786  -0.43774   0.13742
Ge    3.03386  10.29850   8.24359  -0.49975   0.15520   0.71596
Ge   16.87910  19.21691  10.25234  -0.27230  -0.43308   0.17627
Ge   15.38613  16.74236   8.64374  -1.48351   0.13541   0.75006
Ge   17.03958   8.22682  20.03019  -0.21492  -0.13771  -0.40521
Ge    8.18846   7.13905   9.06723  -0.18589   0.12693  -0.40791
Ge    2.58108  19.68328  13.03980   0.54172   0.15177  -0.55683
Sb   15.80021  19.35010   7.87048   0.11290  -0.58221  -0.14385
Sb   10.13154   5.33368  14.73468   0.02235  -0.47096  -0.05814
Ge    7.44546  11.01989   3.79141  -1.93443  -0.29345   6.47667
Sb   19.24600  16.95143   4.55388   0.60100   0.18022   0.13012
Ge   16.46371   4.06897  19.62453  -0.75369   0.74153   0.31513
Sb   11.80412  13.43416  11.19326  -0.52651   0.22762   0.16429
Ge    5.04959   7.27634  17.88613  -0.04858  -0.36478  -0.52501
Ge   18.14244  11.83572   3.85460  -0.06786   0.22770   0.11576
Ge    5.37250  15.63330  17.66337   0.74134   0.37752  -0.01298
Ge   12.61198  16.67353  14.84259   0.06811  -0.27632   0.34533
Ge   18.07543   1.23398  11.42250   0.22061   0.08492  -0.54099
Ge    3.95612   0.16090   1.67323  -0.78520  -0.09081  -0.18023
Sb    8.75268  18.08818   4.05476   0.17767  -0.08221  -0.01447
Ge   16.46431   5.88723   5.70707   0.23801  -0.05186  -0.64753
Ge   12.42374  18.12943   3.69612  -0.23306  -0.39250  -0.27454
Ge    6.25185  14.56117   2.45629   0.01473   0.01571   0.05225
Ge    7.71251   7.78329  17.21048  -0.16608  -0.29797   0.37847
Ge   14.68814  15.80017   4.24875   0.16934  -0.09301  -0.11118
Sb    1.33508  10.86986  10.87813   0.04670   0.07579   0.16407
Ge   15.00633  13.31337   2.74552   0.00974   0.07753   0.04972
Ge    7.02621   5.72113   2.70652   0.11519  -0.08921  -0.03746
Ge    8.93009   9.98564  18.10776  -0.17700   0.48821   0.19911
Ge   10.93272  18.22421  15.96838  -0.02362   0.37612   0.37411
Ge    8.20924  13.31732  11.67215   0.46852   0.43900   0.09183
Ge   17.82806   0.47490  16.14024  -0.02283  -0.05107   0.84730
Ge    0.53063   6.29152  11.74814   1.76785  -0.18697  -0.39938
Ge    0.28286   8.56391  12.37204  -0.22853   0.69394  -0.14716
Ge    1.86311  18.70354   1.02694  -0.11728   0.61135   0.59218
Ge   14.76848  17.30100   2.23667   0.16582   0.75114  -0.21263
Sb   18.34579  15.91702   9.16840  -0.45330  -0.37268   0.44575
Ge   13.03312  18.26699   6.42662  -0.39782  -0.52129   0.12414
Ge    0.18024  17.00019   7.97063   0.53022  -0.60801   0.40441
Ge    5.90910  13.65380   0.23242   0.22911  -0.49420   0.50083
Ge    1.53825  15.45157   6.45508   0.02598  -0.17254   0.12957
Ge   17.33421  11.67070  16.89202  -0.25791  -0.47466  -0.47401
Ge    8.95782   8.28596   3.04740   0.10800  -0.48727  -0.16509
Sb   12.99068   1.10505   4.39933  -0.13702  -0.09075   0.11003
Ge   14.43449   6.55347   1.43527  -0.20545  -0.02015  -0.31511
Ge   18.33574  11.69613  10.78019  -0.67480   0.18155  -1.09833
Sb   13.48302   3.92181   0.82511   0.06845  -0.34383  -0.01086
Sb   18.65655   4.93538   6.58141  -0.36584  -0.44006  -0.01765
Sb   10.89454  18.45647  13.18523  -0.94600  -0.57119  -0.10065
Ge   14.35842  12.21963  14.00302  -0.10976   1.28144   0.48444
Ge    9.30607   2.89543   0.66883   0.28471   0.30935  -0.35644
Ge    5.74506   6.17760  10.41529   0.48976  -0.08149  -0.65125
Ge   17.27876  10.63983   8.82264  -1.27780   0.24418  -0.70258
Ge   12.14503  13.38752   7.78472  -0.30932  -0.01320  -0.07833
Ge   16.22582  16.65618   0.14977  -1.25353  -0.24098  -0.68145
Ge    4.86823  18.10248   9.26010  -1.19574  -0.02193  -0.49433
Sb   11.88130   3.47046  13.09747  -0.20130   0.51579   0.41730
Sb    3.82122   0.67881   4.76348  -0.12938   0.00628   0.11500
Ge   17.35289  17.57041  18.62911   4.28363  -1.21752   3.25281
Ge   14.03503  13.15368   5.53948   0.35353  -0.09566  -0.46849
Ge    4.24580   0.44346  14.22823   0.16925  -0.40895  -0.75521
Ge   12.90517   0.83020   1.69669  -0.12146   0.07337  -0.68224
Ge   14.08728  15.21539  10.87853   0.45179  -0.39965   0.07014
Ge    8.62114   0.51326  19.66278   0.24202   0.07727  -0.10531
Te   19.76995  10.09617   0.59013  -0.28044   0.28084  -0.59367
Te   15.63937  16.37820  14.15964  -1.86246   0.67521  -1.18880
Te    4.65144   4.84904   7.44866   0.78319   0.18131  -0.05568
Te    4.41706  12.93724  15.35237  -0.69192  -0.95305   0.61681
Te   18.96249   4.00826  15.91886   0.71683  -0.21196   0.13585
Te    8.58066   9.87576  15.26846  -0.14988  -0.21091  -0.46862
Te   19.99766  13.16548  17.61259  -0.13664  -0.59079  -0.27232
Te    7.60530  15.37213  13.62106   0.50593   0.15233   0.03225
Te    5.69392   8.03580   8.40817  -0.07822   0.22205  -0.34635
Te    6.26056  18.56436   2.50136  -1.11848  -0.72883   0.99282
Ge   16.58993   5.09108  13.69507  -0.11878   0.19507   0.46673
Te    3.63924   6.82336   0.48836   0.53238   0.03839   0.47349
Te    6.98196   8.58399   0.47261   0.43552  -0.08167  -0.20340
Te    8.16243  18.69435  11.81917  -0.19927  -0.25392  -0.28279
Ge    2.04510   2.96673   3.58062   0.06476   0.20085  -0.50383
Te   14.43288  11.24387  16.89236   0.49773  -0.27829   0.09343
Ge    2.65882  19.00283  10.38490  -1.11835   1.03234   0.03946
Te   13.91367   5.64652  12.09701  -0.05530   0.01499   0.15693
Te    5.06355   3.53224   3.91067   0.30311  -0.18611  -0.23851
Te    2.12298  14.77025  11.49980   0.28313  -0.23097  -0.03607
Te    3.13624  16.17819   4.38070   0.36583   0.61247   0.23504
Ge   16.61323  19.50842   2.56801  -0.07563  -0.04194  -0.03366
Te    0.26582  20.02045   7.90466  -0.85708   0.00117   0.63348
Te    7.80961   9.40433   6.04734   0.22470  -0.08018   0.04365
Te    5.34692  16.34258  11.14576   0.07181   0.01184  -0.27484
Te    0.16148   4.39825   1.47811  -0.68136   0.27848  -0.14665
Te    1.51065  13.12281   0.52204  -0.00076   0.00094   0.44136
Ge   13.12455  10.99126   3.77077  -0.18593  -0.38042   0.13016
Te    8.14383  18.00106  18.03645   0.42501  -0.25404   0.50863
Te    8.43243  11.45962   8.99420   0.07192  -0.28540  -0.29601
Te   18.66700  18.56000   0.81006   0.12825  -0.06014  -0.42295
Te   11.22630   8.15603  14.25360  -0.20989  -0.01873  -0.30207
Te    6.57538  13.86550   9.73043  -0.06068  -0.07871   0.03866
Te   20.28733  16.34430  12.67914  -0.29621  -0.01772   0.00049
Te   10.03526  13.53268  16.16478   0.22665  -0.54090   0.21313
Ge    9.87966  15.71604   3.10130   0.28427   0.24060   0.33924
Ge   17.92814   5.36659  10.05088  -0.62145  -0.68528  -0.99301
Te    1.60813  10.81397   4.40799   1.03021   0.05624  -1.36247
Ge    7.72825  15.94341   0.58287   0.36705   0.20334   0.20610
Te   11.27802  16.32622  18.27357   0.29481   0.11519  -0.26151
Te    3.20286  12.12480  18.33661   0.09885  -0.04055  -0.71258
Te    9.12264  16.39198   6.99864   1.01953   2.12038  -6.13044
Te   13.78610  14.61014  15.80936  -0.10297   0.42925  -0.12614
Te   14.93980   0.37026  11.58454   0.14740  -0.20423  -0.64215
Te    6.14932   6.70496  14.79400   0.41350  -0.49646   1.10718
Te    7.27069   0.90839  16.81327   0.20335  -0.00322   0.38430
Ge    6.36430   2.15049  13.50162  -0.57928  -0.92758  -0.05839
Te    6.32074  18.00346   6.27418  -0.18069   0.48736   0.19921
Te   11.67360   9.81386   5.92698   0.06751  -0.59596   0.35791
Ge   17.05867  11.26803   6.28884   0.13342   0.54737   0.71094
Te   14.59562   2.69568   7.32939  -0.45480   0.14941   0.22346
Te    8.24317   4.70551   6.25610  -0.22675  -0.97488  -0.38980
Te    3.51516   2.86147   0.93459  -0.17714  -0.32607   0.28475
Te   17.95681  13.63964  12.76227  -1.32809  -0.19699  -0.11348
Ge   14.83951   3.35661  10.56238   0.98000  -0.15612   0.43019
Te    0.25075  16.33584   0.97896  -0.91038   0.07544   0.19648