50
config_type=amor Lattice="   11.36344   0.00000   0.00000   0.00000  11.36344   0.00000   0.00000   0.00000  11.36344"   Properties=species:S:1:pos:R:3:forces:R:3 energy=-11020.1929 pbc="T T T"
Se      8.788882011     11.178192281      6.122706717      0.777791954      0.431614512     -0.695436394
Se      6.088820749     11.345154588      8.271835866     -1.279848826      1.953745666      0.622523991
Se     10.752279218      8.194789145     10.293688508      0.490687325     -0.746778593      0.032247277
Se      3.133240035      0.794517791      9.431531130     -0.312421319      0.036943679     -0.150130337
Se      1.362535802      3.540164102      6.905228145      1.226616282      0.149952511     -1.837200492
Se      2.025879509      4.597600557      3.612531454      0.274158283      0.169109085     -0.027636145
Se      9.554299052      4.645025302      7.826002478      0.298399013     -0.174689010      0.304919067
Se      5.686956113      6.129042927     10.213150372     -0.456039538      0.231365140     -0.037903173
Se      4.078748815      5.696030896      6.666097722      0.441458789      0.123400985      1.588456438
Ge      8.218039092      8.605270270      3.665627209     -0.400180461      0.098756707      0.154757675
Se      8.377670040      2.907588645      3.330111997      0.072948613     -0.117664966      0.434930811
Ge     10.950878912      9.716233451      5.844512583     -0.442873060     -0.143626410     -0.572214038
Ge      4.598892908      8.484832977      7.269434168     -0.325870864     -0.327655722      0.194067464
Se     10.124930509      2.842244087     11.362056191     -0.392349334      0.310837492      0.394482629
Ge     10.787403171      4.361691070      5.693439377     -0.210963862     -0.033304733     -0.377532498
Se      8.039154608      6.687534575      5.325819243      0.393547586      0.431158807      0.023721944
Se      4.200629270     10.694520654      5.358281268     -0.875455477     -0.623196208     -0.029534940
Ge      5.207145762      9.205448894      0.184444683     -0.141020873     -0.501908146      0.709996097
P       2.471362693      9.221401077      6.285474725      0.254582080     -0.066541389      0.201078610
Ge      7.304734175     10.296613071     10.002707082     -0.225024951      0.122724755      1.478548772
Ge      0.206043581      3.208301382      8.852374788     -1.159608587     -0.107684481      1.276986020
Se      6.030014461      7.572996713      2.378668608     -0.543384126      0.440844953     -0.582841969
Se      6.307499646      3.338249564      6.853106149     -0.042429102     -0.162423747     -0.262827083
Ge     10.543837342      7.042181609      5.450814777     -0.680498575     -0.210143278     -0.178663449
Se      8.884926601      0.380517031     11.088179522     -0.554353214      0.794901426      0.150642271
Se      0.685987959     10.430235091      3.513113825     -0.582193591     -0.212882941     -0.094428740
Ge      6.246910743      3.989107923      3.737110650     -0.024311099      0.391499832      0.849571309
Ge      7.909849112      2.732094558     10.071727844      0.679187015     -0.824177019      0.876177154
Ge      1.204034830      6.698193390      9.286632967     -0.237666008      0.610541702      0.366835331
Ge      4.019691896      1.525837626      0.258635676     -0.250285662     -0.222298452      0.543899074
Se      1.859818714      2.360628776      1.389656077      1.036868500     -0.847395315      0.771082706
Se      0.891041525      4.824833715     11.014726131      0.336234615     -0.400530552     -0.824556493
Ge      8.182406942      1.936144776      7.525271624     -0.046525814      0.406314499      0.340040697
Se      5.633364055      3.789431980      1.350245148     -0.455820542      0.229202929     -0.744336000
Ge      3.097226715      9.149562754      3.037948647     -0.122451714      0.017301886     -0.161686079
Se      4.638923619     10.897854582      2.027550361      0.160963645      0.478146499     -0.813626589
Ge      3.410280173      6.391626884      4.603710796     -0.118149492      1.030770276     -1.595258092
Ge     10.117608751      4.431647043      2.457008835     -0.182425837     -0.351710147     -0.125014940
Ge      6.552324039      5.847988631      7.697461071      0.487194379     -0.460636294      0.121956811
Ge      1.081268183     11.059481338     10.178523355      0.277081434     -0.206106330      0.057446099
Ge      3.581497337      5.511185026      1.346589706      0.351560379     -0.006383509     -0.450303353
P       1.125237444     10.481453897      7.455561615      0.397182819      0.358497232     -0.192599407
Ge      0.463405593      6.849865005      0.875160797     -0.236676603      1.628138496      0.085505850
Ge      1.841439781      0.619084579      4.967170469      0.627397482      0.420376513      0.616291979
Ge      7.284338204      5.963505709      0.777170419     -0.532364650     -0.370019832      0.081763543
Ge      6.924737402      9.755872310      6.800570371      0.428897671     -1.738502517     -1.023996229
Ge      3.407313248      2.465965414      3.423598933     -0.727484318     -0.001261744     -0.251955968
Se      9.487921309      7.081497115      2.223142194      0.896441965     -0.666907047      0.427705382
Se      8.248570165      8.761074443      8.613948329      0.621852953     -1.774231583     -0.749272617
Se      2.634928867      8.378332011      0.166934504      0.513660870      0.276713173      0.001825949
50
config_type=amor Lattice="   11.36344   0.00000   0.00000   0.00000  11.36344   0.00000   0.00000   0.00000  11.36344"   Properties=species:S:1:pos:R:3:forces:R:3 energy=-11022.1316 pbc="T T T"
Se      8.455013620     11.070103723      5.379985563      0.327181089     -0.081094722      0.892452121
Se      6.209748201      0.776710608      8.493241212      0.104863541     -0.901406982      0.278666126
Se     10.963681238      8.075090955     10.743680815     -0.044585894     -0.089334650      0.189071967
Se      2.179267299      1.290323247      8.940444281      0.931323124     -0.428205743      0.743485423
Se      1.320942264      3.194676942      6.674841363     -0.278543945      0.348494267     -0.998438406
Se      2.609576456      4.680274503      3.333924351     -0.168166531     -0.167820745      0.722076773
Se      9.822586137      5.072608483      7.805566410     -0.171738116      0.235203098      0.209164142
Se      5.323656696      6.293862952     10.116963256      0.438039763      0.227669818      1.015275824
Se      4.735565987      6.487532115      6.669559474     -0.680585065     -0.388643332     -0.423741952
Ge      7.992581016      8.902450725      3.116060445      0.990162230     -0.032143794     -0.305803214
Se      7.835837794      2.848090366      3.112814750     -0.735400654     -0.150930468     -0.151724151
Ge     10.587669523      9.598097624      5.537523661     -0.552630978      0.454930510      1.155589965
Ge      3.844614021      8.216328518      8.165988228     -0.517422057      0.393138550     -0.133937118
Se     10.342642559      3.203346449      0.168444687      0.130924409     -0.115420359      0.699430728
Ge     10.655593343      4.409379461      5.695759827      0.682348735     -0.047591446      0.462700537
Se      7.915429845      7.443040730      5.327783162     -1.557535473     -0.633083706     -0.291238008
Se      3.897120175     10.021205087      5.285424033     -0.009022664      0.787686502     -0.179764286
Ge      5.334667315      9.131849955     11.156959052     -0.304980101     -0.243472324      0.048035770
P       2.313381436      8.717613290      6.254042881     -0.417067083      0.272585366      0.632543310
Ge      7.262530979     10.387050194      9.873393866     -0.271420967     -0.382169006      0.392765823
Ge      0.683570790      3.309234908      9.137481102     -2.058246802     -0.797743164     -1.074168980
Se      5.902743177      7.992262287      2.052767556     -0.226065425      0.032427385     -0.244273340
Se      6.347082472      3.236457957      6.745588546      0.472667791     -0.067901513      0.342021176
Ge     10.261131449      7.083726844      5.407046807      1.181955144     -0.530510922     -0.460423170
Se      8.453256304     10.812957654      0.596997992      0.432554671      0.433467292     -0.509206700
Se      0.333122005     10.279775163      3.658107995      0.596681150      0.381322166     -0.756640333
Ge      6.567365950      4.257871412      4.617556245      0.503940755     -0.503857210      0.191312031
Ge      8.569124727      1.866028789     10.849108211     -0.126235338     -0.059316494     -0.185757609
Ge      1.518335209      7.241907805      9.492137770      0.389529339     -0.083049724      0.090380048
Ge      3.493535597      1.432061329      0.185118564      0.186581272      0.244852224     -0.806429848
Se      1.718073912      0.884983796      1.845755784      0.180997726      0.755546759      0.263161921
Se      1.817140737      4.939707318     10.331935509      1.279444419      1.415324956      1.116528582
Ge      8.382066628      1.585235482      7.540861874     -0.013551878      0.201284628     -0.336330661
Se      4.825682347      3.544380240      1.033702194     -0.278118094      0.090812205     -0.027128400
Ge      3.088431516     10.075327214      2.246290159      0.520962000      0.446240663      0.988592044
Se      5.216897048      0.120699398      1.357510644      0.031406988     -0.725982784      0.023347988
Ge      4.787955715      5.912817437      3.979285949     -0.623203723      0.502294248      0.028414068
Ge     10.093711166      3.374592302      3.153511571      1.160836574      0.328447776     -0.498473250
Ge      6.738910432      5.967945683      7.931974739      0.822208910     -0.681202355      0.652485744
Ge      0.507905786     10.915875009      9.690504209     -0.170757836     -0.014400642     -0.495000109
Ge      3.651414268      5.938688163      1.288015465     -0.229857655     -0.987137929     -0.691666208
P       0.918518293     10.383839379      7.104429632      0.009147953     -0.679413883      0.208384730
Ge      0.863921390      7.661428388      1.551657433     -0.432123746      0.019176618      0.059426874
Ge      1.980091623      0.541582808      5.473584631      0.008887264     -0.080646231     -0.488653903
Ge      6.597187981      5.531274826      1.007426769     -0.144375026      0.110812010     -0.753190769
Ge      6.758618765      9.425353085      6.771399252      0.209733918      0.087148966     -0.205223976
Ge      3.533602007      2.135264712      3.328219240      0.002829312      0.419234977     -0.380743095
Se     10.092041480      6.967070296      2.688138582     -0.602190565      0.190579502      0.463232023
Se      8.056732661      8.361561341      8.815374424      0.202665134      0.708827337     -0.449204736
Se      2.722230513      9.214140601     11.267186583      0.247803032     -0.101913064     -1.595470218
50
config_type=amor Lattice="   11.36344   0.00000   0.00000   0.00000  11.36344   0.00000   0.00000   0.00000  11.36344"   Properties=species:S:1:pos:R:3:forces:R:3 energy=-11021.2737 pbc="T T T"
Se      7.754536814     11.073818732      4.961818758      0.524656509     -0.869017778      0.698417393
Se      6.563783956      0.053349709      8.848149063     -0.226835216     -0.362710425     -0.304969388
Se      0.100672170      8.198298623     11.302759913      0.028876836     -0.067135141     -0.220472125
Se      2.057533773      0.480371746      8.340150022     -0.091770417      0.312077286      0.589625935
Se      0.747201946      3.516960694      6.582974046      0.379419968     -1.069617869      0.315234634
Se      2.604038351      4.884869307      3.926557882     -0.509769846      0.530771324     -0.206787796
Se     10.225535919      5.467559857      8.428368363     -1.379830898      1.403591138     -0.162000328
Se      5.888407655      6.564073394     10.270510711     -0.546299927     -1.867522790     -1.518867232
Se      4.590552812      6.236888467      7.232930886     -0.475869126      0.434109056     -0.405177577
Ge      8.426640785      8.787892577      2.830380875     -0.149560553      0.145779807      0.142146100
Se      7.814023182      3.135214769      2.864279630      0.927092097      0.441041512      0.267455453
Ge     10.029504416      9.444916371      5.246169063     -0.662871478      0.351016327      0.032867729
Ge      3.396062630      8.564680880      7.927466898      0.468007674      0.275096649     -0.286816417
Se     10.509877761      1.761345669      0.521919352      1.068533573      1.102928149      0.555870919
Ge     10.028109306      4.601028861      6.065518046     -0.300655874      0.281836077     -0.386236537
Se      7.460264754      6.720430365      5.349182669      1.445099013     -0.146047977     -0.161300355
Se      3.010570619     10.938166056      5.007719009      0.119586130     -0.104302456      0.584980290
Ge      5.789716683      8.522699143      0.004587089     -0.497801512      1.799209384      1.293742875
P       1.833355512      9.083838126      5.947095219     -0.084530987      0.365116033     -0.389517824
Ge      7.694008598      9.508444064      9.996865153     -0.580335313      0.220350679     -0.322736133
Ge     10.983381813      3.364807210      8.969648240      1.474207261     -0.538703978     -0.451045088
Se      6.177660508      7.338999722      2.357551793     -0.057577339     -0.421293867     -1.022830701
Se      6.960802373      3.075370839      7.056999086     -0.343815762      0.149664612     -0.123479968
Ge     10.281974935      6.953076042      4.704031480     -0.808371621     -0.681745403      0.884692316
Se      9.066361151     10.656393795      0.102316368      0.240478279      0.134625734      0.604775994
Se     10.728621365     10.023845797      3.005002217      1.193253775      0.288678118     -0.537578051
Ge      6.677427687      4.159344969      4.799610831     -0.376154315      0.164946226      0.265838582
Ge      8.168494227      1.785353384      0.591547643     -0.657431759     -0.555009735     -0.752839469
Ge      1.679408051      7.543657565      9.550138537      0.158665548     -0.036698316      0.748009650
Ge      3.909709775      1.329004116      0.174910894     -0.258943274      0.679770062     -0.055899419
Se      2.162490252      1.992600413      2.415041874     -0.563604727     -0.969337691     -1.058237948
Se      2.254804542      5.139025805      9.763082435     -0.163844862     -0.047070557      0.652532671
Ge      8.385537050      1.145749189      7.543463839      0.411129907     -0.151764516     -0.540140782
Se      5.066758366      3.883180943      0.783604476     -1.126185924      0.083585841      0.187821415
Ge      2.904971691     10.717396109      2.443434348     -0.407465697      0.159236174     -0.119801662
Se      5.239860855      0.091373157      1.723838603      0.434167048      0.159008448      0.492359167
Ge      4.692170442      6.058776673      4.602115249      0.084829683     -0.236783900      0.663327201
Ge     10.398921975      3.625013009      3.301888659     -0.454825329     -0.531158944     -0.216376551
Ge      7.315292395      6.017256733      7.965513664     -0.502949516     -0.569705580     -0.115939424
Ge     11.229598068      0.808002585      9.267908817     -0.177855283     -0.821280511      0.028132330
Ge      2.748552927      5.743709759      0.862831336      0.517913263     -0.529045501     -0.492003320
P       0.295756267     10.480728186      6.684380099     -0.022374274      0.047438448      0.910139077
Ge      1.061221365      7.820770601      2.281683702      0.033652424      0.397344732     -0.328487694
Ge      0.745485120      0.958540246      4.903816872      0.105674857     -0.182520851      0.115973906
Ge      7.259005092      5.419881258      0.587927752     -0.244530084      0.117819995      1.123525964
Ge      6.554292665      9.523716760      6.739510031     -0.108761324      0.080988723     -0.231469287
Ge      4.155145177      3.121492784      3.197754847      1.249405306     -0.270323468      0.266405375
Se     10.449164796      6.010542153      2.416817618     -0.538204731      0.227454392     -0.250031155
Se      8.514915872      8.215985292      7.978928595     -0.012967024      1.212674398      0.315434245
Se      3.389019317      9.342848282      0.045306718      0.371034158     -1.151220637     -0.886585831
50
config_type=amor Lattice="   11.36344   0.00000   0.00000   0.00000  11.36344   0.00000   0.00000   0.00000  11.36344"   Properties=species:S:1:pos:R:3:forces:R:3 energy=-11021.1900 pbc="T T T"
Se      7.762362731     10.513515638      4.973977614      0.499567758      0.628769649      0.085518400
Se      6.358375923      0.615960609      8.362972333      0.192939045     -0.466469750      0.143647174
Se      0.696237397      8.864639155     10.605084668     -0.189642840     -0.471254539     -0.068867918
Se      1.385562188      0.678837567      9.551854674     -0.498776090     -0.399282086     -0.823128918
Se      1.196872523      3.475932512      6.438064040     -0.275526631     -0.674153066     -0.033013298
Se      2.266652950      5.246154986      3.861200779      0.757878692      0.019512106     -0.954618786
Se      9.903434682      4.926982955      8.232470638     -1.151962746      0.329027509     -0.544683502
Se      6.229562924      5.315104858     10.057551549      0.160702801      0.988658263      0.016729502
Se      3.706834837      7.130039072      6.482152699      0.674993849     -0.552255578      0.083374265
Ge      8.853182941      8.422815767      2.735580152     -0.396191658      0.006119769     -0.386274691
Se      8.178050198      3.279350325      3.036984638     -0.762944301     -0.098106787      0.571286290
Ge     10.611112026      9.117012990      5.296903307     -0.102329021      0.611189923      0.050936408
Ge      3.681275015      9.400208260      7.538337728     -0.063126655     -0.422690336      0.022817978
Se     10.164043578      2.738561218      0.230717369     -1.063107114     -0.537553894      0.206049556
Ge     10.154825536      4.032199589      5.959770885      0.179702305      0.306951812      0.791022729
Se      7.934349004      7.051257143      5.133397410      0.785898396     -0.483127454     -0.049805742
Se      2.158112238      0.390713948      5.163507720      0.235417808     -0.668378127     -0.187744294
Ge      6.377333832      7.749853350      0.006568229     -1.014869772     -0.320123145      0.033581345
P       1.491904642      9.841981256      6.272471549      0.347899833      0.491745246      0.442063884
Ge      6.939358699     10.060082955      9.938880360     -0.167535010     -0.400523679      0.052382682
Ge      0.448630049      3.352184263      8.920932745      0.728257812     -0.005167217      0.479434051
Se      5.952139215      7.263787415      2.759339533     -0.048935673     -0.776639302     -0.777007617
Se      6.377466074      2.538578369      6.361127674      0.321219193      0.044254595      0.235528224
Ge     10.535253297      6.506073246      4.867763202     -0.456381592     -0.083913308     -0.519660043
Se      8.959221920     10.494774502     11.362671885      0.210598567      0.309349260      0.313960053
Se     10.905298262      9.914177474      2.935968107      0.419855799     -0.135878923      0.070971777
Ge      6.744412346      4.533792725      5.039147375      0.158021738      0.406867685     -0.352209436
Ge      7.836734361      1.245208707      0.923722022      0.682851195      0.704478208     -0.160788932
Ge      2.595320105      7.423326219      9.269598731     -0.302029697      1.043858341      0.766031280
Ge      4.175305624      1.564493455      0.157190554     -0.531410643     -0.911436501      0.584578048
Se      1.903900957      1.706546665      1.795098734      0.443733343     -0.476773234     -0.350505345
Se      2.544798863      5.155467422     10.105806030     -0.322930299     -0.709345325     -0.072109607
Ge      8.436786344      0.913910249      6.801628843     -1.034212467     -0.053711784     -0.167069365
Se      5.251287209      3.451528246      1.224747838     -0.091908403      1.395453228      0.647603118
Ge      3.131969110     10.536936166      2.834996399     -1.119710119      0.500810375     -0.067437298
Se      5.099050414      0.558185301      2.548560319      0.561461429     -0.672896587     -0.550128267
Ge      4.580257012      5.888630449      4.425207562     -0.479443124      0.529762434      0.145062663
Ge     10.539892056      3.683898693      3.460305972      0.661763025     -0.046487697     -0.639920972
Ge      7.185734638      5.686802250      7.821212902      0.315444176      0.021821237      0.599835802
Ge     10.079267566      0.915717849      9.819292486      0.309299264      0.108352807      0.032429266
Ge      3.610871556      5.775781559      1.110145109     -0.039447129      0.075129408      0.304845045
P       0.143362850     10.908452948      7.798825468      0.259834063      0.794104675     -0.258082670
Ge      1.261349193      8.083265914      1.470585182     -0.034767992      0.321924337      0.276229920
Ge     10.884911881      1.229518290      5.676692090      1.266385649     -0.126608426      0.359214499
Ge      7.949052083      5.112019470      1.352948990      0.037336970      0.469968130     -0.536320490
Ge      6.489632388      9.362697050      6.648637596     -0.382297715     -0.039573336      0.152982619
Ge      3.729614533      2.631122979      3.304878899      0.016924798      0.193540664      0.042419291
Se     10.427634136      6.584662068      1.773734269     -0.623849580     -0.723043444      0.573611031
Se      8.233776185      8.786215122      8.328512007     -0.029240689     -0.707039924      0.147204874
Se      3.804754981      8.405159056      0.002857876      1.096336280     -0.281018010     -0.474501161
50
config_type=amor Lattice="   11.36344   0.00000   0.00000   0.00000  11.36344   0.00000   0.00000   0.00000  11.36344"   Properties=species:S:1:pos:R:3:forces:R:3 energy=-11021.7884 pbc="T T T"
Se      8.031672612     10.923519066      4.745871957     -0.066876285     -1.090387746     -0.028396499
Se      6.217110401      0.506334101      8.066886903     -0.626062644     -1.125031073      0.575570955
Se      0.227144153      8.499631588     10.657488556     -0.047881177     -0.326964257     -0.616342144
Se      0.351049673      1.249602378     10.005892602      0.475594020      0.576157510     -0.097273981
Se      1.496277362      3.611259523      7.509794823      0.833858801     -0.199486473     -0.712153751
Se      2.495719298      4.718065870      3.014557534      0.173212923     -0.004149302      0.323347429
Se      9.397823571      4.648756965      7.826376482      0.484765784     -0.167794150      0.111984144
Se      6.767680173      5.273756922     10.103778690     -0.139511869      0.220704527      1.007354419
Se      3.072319878      7.682068168      4.997893245      0.238784181     -0.052730628      0.786874597
Ge      8.611915262      8.711308464      3.103438562      0.516674958      0.062193126      0.780444389
Se      8.577353409      2.993813825      3.815320318     -0.187230041     -0.035917300     -0.322100176
Ge     10.188770000      9.716222792      5.571006620      0.438464618      0.475049013      0.063132657
Ge      3.879251481      8.415375819      7.611812955     -1.019672651      0.363166864     -0.520622934
Se      8.926484259      3.089589050     11.195088160     -0.122753667      0.229815551      0.902856845
Ge     11.040435714      4.306991695      6.037936492     -0.560968547     -0.883466651     -0.083953488
Se      9.524168292      7.345664308      5.472131174     -0.367387727     -0.090029367     -0.694131903
Se      3.011137745      0.247725793      5.481662973     -0.190662657      0.112460285      0.071504734
Ge      6.621821089      7.716593094     11.026328524     -0.172850014      0.043314034     -0.383045334
P       2.124147565     10.348131941      7.213900213      0.343892352     -0.915508815     -0.019333581
Ge      6.839098860     10.403847297     10.139382121      0.309091050     -0.491296118     -0.132882204
Ge      0.361208068      3.978113248      9.738372980     -0.186793367     -0.326984569      0.384233354
Se      6.413032427      7.041588503      2.403162415     -0.582851396      0.000495632     -0.117154096
Se      5.371969305      3.199553697      6.181222305      0.305821847      0.180643815     -0.259274145
Ge      0.402127951      6.137408581      4.550588066     -0.060348738      0.982104755     -0.782985237
Se      9.002285315     10.944562651     11.242539562     -0.688052322     -0.294896935     -0.587984204
Se     11.177419041      9.393849198      3.027289846     -0.231333743      0.178988582     -0.215805700
Ge      7.093536481      4.725494293      5.161207657     -0.301824361      0.301941025     -0.189276327
Ge      7.213144133      1.444879513      1.930303572      0.760356165     -0.246092829     -0.131285677
Ge      2.283085257      7.367898148      9.521137211     -0.012417456      0.610085685     -0.527927979
Ge      4.247543759      0.920686329      0.447525599      0.217700947     -0.754135847     -0.320175724
Se      1.933532217      1.263335820      1.478197828     -0.976997237     -0.116646378     -0.293845770
Se      3.125006807      5.024661127      9.872467575     -0.565900710      0.567331406      0.773368942
Ge      7.436730503      2.011957581      6.629897758      0.935202723     -0.223246881     -0.408346360
Se      5.273187034      2.999582013      1.483174005     -0.230657506      0.635303438      0.336851079
Ge      2.444965362     10.390343952      2.577709083      0.456482754      0.050146354      0.350846595
Se      4.946171058     10.853900524      2.486457113      0.279428934      0.403123779     -0.224191794
Ge      4.705041479      5.967180719      4.236750622     -0.664312363     -0.173733696     -0.180842191
Ge     10.979600210      3.289113226      2.523520880     -0.781573737      0.354527095     -0.089222084
Ge      7.083911195      5.730626150      7.816908140      0.151002075      1.282097545     -0.449602273
Ge      9.173469572      1.340024251      9.365490647      0.046798035     -0.009047407      0.614669663
Ge      3.674151639      6.425601167      0.688207645     -0.224052420     -0.269510205      0.142441391
P       0.371264375     11.304650268      8.064681494      0.240100502     -0.235792288     -0.397743045
Ge      1.320885748      8.125608654      1.349125152     -0.079398741     -0.506216029      0.497575017
Ge      0.818134672      1.480857729      6.174604980     -0.384224932      0.334683304     -0.288866339
Ge      7.402160096      4.781765200      1.865205162      0.972277787     -0.440487362     -0.244135874
Ge      6.428749074      9.233357626      6.493462178      0.294178506      1.088818837      0.126728224
Ge      3.215238847      2.266593564      3.310794414      1.049077970      0.420004519      0.431207176
Se     10.406993287      5.726826298      2.315664342     -0.011513794     -0.011564210      0.211636418
Se      7.963649904      8.531050643      8.316679929      0.053869915     -0.025267144      0.299773937
Se      3.942049947      8.799986747     10.846236550      0.249321698     -0.769797608     -0.135751247
50
config_type=amor Lattice="   11.36344   0.00000   0.00000   0.00000  11.36344   0.00000   0.00000   0.00000  11.36344"   Properties=species:S:1:pos:R:3:forces:R:3 energy=-11022.2369 pbc="T T T"
Se      8.417397153     10.563252227      5.308947017     -1.481167473     -0.084072505      0.379623604
Se      5.582701392      0.870665383      8.255947089      0.648409138     -0.698293284     -0.441682930
Se     11.047468125      8.016957865     10.800376417      0.749397705     -0.143975637     -0.098108835
Se      0.004840754      1.906397345      9.675028656      0.461992643     -0.298190534     -0.148018640
Se      1.901950616      3.778664095      7.199446273     -0.132806253     -0.519826085     -0.319719767
Se      3.055003065      3.912415628      3.330334591     -0.294592986      0.049256640      0.089984425
Se      9.247922745      4.260981954      7.288631370      0.356185175     -0.442021128      0.136528223
Se      6.125018180      5.785047677      9.598368005      0.336822185     -0.428283255     -0.267901796
Se      2.296569644      7.929810472      4.504979937      0.534799199     -0.814254725      0.540266883
Ge      9.072468538      8.446560211      3.954563566     -0.303087405      0.184500721      0.072049318
Se      9.071037996      2.638701590      3.863723341     -0.602330796     -0.324055711      0.416634568
Ge     10.859174999     10.529282671      5.239051687      0.389871005     -0.080442363     -0.400181306
Ge      3.007584680      8.202126980      7.095343333      0.289597636     -0.840537914      0.078111193
Se      8.976886270      3.378409402     11.239882930     -0.052081416     -0.322394938      0.190128690
Ge      0.180393793      3.826523259      5.454762437     -0.008134218      0.130879549      0.672308681
Se     10.785781285      8.023827625      5.951665281     -1.061992888     -0.269677594     -0.376137377
Se      3.673131005      0.049275142      5.500701360      0.537255460     -0.351280903     -0.071431001
Ge      6.809793066      7.798717608     10.686490521     -0.578882751      0.124738433      0.878977091
P       2.438969010     10.433372251      7.203317892     -0.666947730      0.855616690      0.550801295
Ge      6.192096451     10.597171433     10.022514334     -0.266003434      0.046156390      0.505967306
Ge     10.761940520      4.411498121      9.653992691      0.150183135     -0.584566403     -0.436541145
Se      5.099263042      6.774274765      1.959004209     -0.765733213     -0.277538331      0.741490630
Se      5.681415728      3.455547011      5.951398188      0.648294979     -0.130445289      0.160876632
Ge      0.186629739      6.157478302      4.254091231      0.748800339      0.345879613      0.455699125