   300
 config_type=liqu Lattice="   20.31669   0.00000   0.00000   0.00000  20.31669   0.00000   0.00000   0.00000  20.31669"  Properties=species:S:1:pos:R:3:forces:R:3 energy=-40436.0994 pbc="T T T"
Ge    1.50183   2.25360  19.19271 -12.35698   2.47879  47.48442
Ge    7.21229   3.80457  12.17728  -0.41051  -0.30035  -0.15568
Ge    9.34307  14.29597   8.81854   0.00849   0.04443   0.32704
Ge   20.23131   0.18702  18.49328   0.20874   3.12999  -3.22546
Ge   10.01667  19.96645   1.57375   2.80898   1.96125   5.17200
Ge    7.62921   2.83594   8.44649   0.07056  -0.06343  -0.03643
Ge   12.88755   4.06889  17.15381   0.05854  -0.58543  -0.06057
Ge    8.83346  13.02595  19.12443  -0.34637  -0.49274  -0.70000
Ge    1.84607   2.19444  17.75168  11.46400  -0.71482 -48.01448
Sb   17.20435   1.02409  19.66793  -3.07128   3.35338  -3.03183
Sb    2.05134   4.72504  14.95780   0.83330   0.35399   1.72037
Ge    0.53633  18.58724  19.37413  -0.47518  -5.27580  -2.19046
Ge   11.60920  14.85097   2.92550   1.21895   0.43295   2.52424
Ge   10.70131  19.17935   9.55386  -1.84243  -1.43245   0.63467
Ge    5.68025   4.77467  20.30343  -0.35632  -0.28422  -1.72908
Sb   18.56224   5.97049   1.12345  -3.69897  -1.70221   0.59984
Sb    2.22444   5.13594   2.76919  18.75996  10.23937   7.75287
Sb   11.05846   5.99286   1.55984  -0.33543  -2.50432   4.92546
Ge   10.61173   1.42835   7.25333  -0.33097   1.16416   0.77409
Ge    6.52228  11.73847  13.16203   0.48549   0.02556  -0.29187
Ge   11.26219   2.57772  20.21641  -1.21029   1.51840  -1.70807
Ge   14.09037   7.81102   9.20424   0.12057   0.16010  -0.29461
Ge   15.28326  12.62873  11.40792  -0.08653   0.27576   0.19221
Ge   19.24147   6.13501  13.92326  -0.48952   0.52085  -0.47235
Sb    0.41361  12.68945   8.38986   3.16922  -0.11692  -3.97286
Ge   15.80082   9.00365   7.26387  -0.09288   0.05209   0.44750
Sb   16.75960   1.32450  14.30022  -0.48844   0.20968  -0.63877
Ge   19.05494   8.28119   9.67079  -1.95981   0.27598  -0.03439
Ge   12.94379   1.43104  17.45382   0.00194  -0.30480  -0.04318
Sb   18.66098  17.78313  15.31165  -3.97324   1.02272  -0.17462
Ge    0.57688  10.89403   6.25371  -3.00716  -0.08783  -1.48245
Ge   11.70056   2.89252  10.08057  -0.36264   0.46868  -0.05776
Ge    3.14427  13.88274   0.39615   1.52080   3.32548  -2.57465
Ge   10.45818  11.00990   0.06903  -3.16916  -0.54028   3.07822
Sb   11.96207  15.95549   6.37667   1.48428  -0.31235  -1.23990
Te   10.80450   8.24170   0.45840  -0.99865   2.70345  -0.98578
Sb   10.71806   9.40643   8.94583   0.85843  -0.48541  -1.82433
Sb    4.37825   1.24562  17.98542  -2.44226   0.24213  -1.00738
Ge   18.19732   0.57820   8.47535   4.26516   1.86765   1.11991
Ge   13.37855  10.69423   8.25613   0.22496  -0.52132  -0.06448
Ge    7.13073  12.46585  15.63344   1.15481  -0.10470   0.84637
Ge   16.36888   8.46245  17.57206   0.00609  -0.20730   0.10496
Ge    2.00734   5.33421  19.52282  -1.75860  -2.41737  -3.12617
Ge    2.37007  10.46528   7.56908   2.85532  -0.41638   1.92331
Ge   17.07311  19.02637  10.86627  -0.34121   0.26471  -0.68026
Ge   15.30601  16.87520   8.86297  -0.10471   0.23741  -0.16115
Ge   16.37735   7.75874   0.05701   0.58711   0.65424  -0.53101
Ge    8.10141   7.66148   8.68064   0.19220  -0.40644   0.78935
Ge    1.58135   0.54585  13.16501   3.39076  -1.64025   0.13890
Sb   16.13734  20.03118   8.09607  -3.66490  -3.02254  -0.86113
Sb    9.88621   5.37052  14.66412   0.26950  -0.22933   0.17420
Ge    7.17386  10.88052   4.34441   0.49753   0.26100  -1.24260
Sb    0.60179  18.63435   3.97909  -8.10706 -12.52695   7.35863
Ge   15.82790   3.75067  19.33142   1.95398   1.74992   1.07529
Sb   11.71258  13.55296  11.18269   0.51434   0.03364  -0.09757
Ge    4.98661   7.85927  18.84267   0.48500  -0.14993  -1.17353
Ge   19.00462  11.62890   3.53949  -1.23571   0.18653   0.60907
Ge    5.20866  15.74734  18.27582  -0.19431   0.10698  -1.14376
Ge   12.60045  16.78236  14.54927   0.07634  -0.27830   0.33499
Ge   20.10657   1.04514  11.60222  -4.88364  -0.88557   1.19285
Ge    2.93474  20.26767   2.27615   4.65269   0.05476  -3.09629
Sb    8.32406  18.53524   3.51092  -0.12194  -0.50903   0.68765
Ge   16.89328   5.21196   5.24706  -0.52818   0.10111   0.46563
Ge   11.45419  17.93382   3.38384   0.90132   0.45078   0.35959
Ge    6.33805  14.78999   2.92623   0.04303  -0.02192  -0.66748
Ge    7.84592   7.68022  17.94364  -0.71064  -0.18798  -0.60948
Ge   14.41444  15.20130   3.80565  -0.27286  -0.39272   0.13518
Sb    1.54702  11.36701  11.02384   0.68240  -1.70683  -0.49966
Ge   14.82990  13.30472   1.51060   0.87519   1.67968   1.91503
Ge    6.28079   5.59123   2.14999   0.83570  -0.08042   1.74296
Ge    9.23032   9.56797  18.78432  -0.43071   0.27916  -0.78481
Ge   10.22013  18.13059  16.18535   0.52215   0.18528  -0.07797
Ge    8.88320  12.93225  11.87848  -0.74641  -0.00886  -0.18249
Ge   18.71166   0.44901  16.29105  -2.40640   0.81759  -0.64731
Ge    0.84559   4.70168  12.66417  -0.98998   9.74867  -1.82324
Ge    0.39076   9.14048  11.87267  -0.32100  -0.93355   0.58543
Ge    1.52888  19.02402   0.83566   3.45841  -0.33987   2.02644
Ge   15.32125  18.02721   2.44558  -0.07508  -0.20569   0.12088
Sb   19.74627  15.17847   9.53251  -3.52758   2.48055  -1.00059
Ge   12.58716  19.03886   7.15720  -0.09121  -4.40465  -4.30325
Ge    0.52001  17.24438   8.05129  -1.32687   2.74318   0.51916
Ge    6.25031  14.10750  19.96794  -0.58835  -0.75526   0.08275
Ge    0.90599  15.40664   6.80268   1.07453  -2.24973  -1.72916
Ge   17.98545  11.53400  17.90836  -0.38506  -0.93449  -0.38644
Ge    8.63731   8.04773   2.55091   0.48996   0.24430   0.63019
Sb   13.11119   1.30961   4.70878  -0.24103  -2.11370  -0.44472
Ge   15.09594   6.01496   1.19550  -0.63154  -0.46161  -0.12843
Ge   19.40844  12.29475  10.26265  -4.33542  -1.67978   3.35817
Sb   13.85937   3.09627   0.31930   0.08840   1.53759   1.56940
Sb   19.48590   4.08304   6.26248  -0.41572   2.37063   1.69489
Sb   10.40320  18.66063  13.25627   0.72900  -0.92519   0.03378
Ge   14.40719  12.67295  14.09775   0.05491  -0.31619  -0.02153
Ge    9.06652   3.50570   0.44694   0.77576  -4.18626   2.04426
Ge    5.92874   6.15161   9.53715  -0.16094  -0.04886   0.03095
Ge   17.07144  10.94275   8.89516   0.31942  -0.32991  -0.11475
Ge   12.09962  13.47733   7.88339   0.04579  -0.34647  -0.27023
Ge   17.06973  16.18921  20.30116  -0.84991   0.47624   0.26413
Ge    4.37289  18.88424   8.58806   0.68506  -1.37340   0.75778
Sb   11.79556   3.58507  13.00932  -0.18970   0.06324   0.28364
Sb    3.69358   0.70320   4.49294   3.18973   2.50727   0.55656
Ge   18.19655  19.10761  17.83400  -2.23123  -2.43628  -0.48296
Ge   13.81769  12.59420   5.11847   0.02176   0.69275  -0.02000
Ge    3.57964   0.91325  14.95513  -0.11185   2.49052  -1.78042
Ge   12.08880   0.75731   1.05211   0.86479  -0.92631   2.19400
Ge   14.12434  15.07509  10.88518   0.16091  -0.05810  -0.27768
Ge    8.46237   0.57228   0.41393  -2.21604   0.92818  -4.01988
Te    0.34625  10.06398   1.17311  -2.49148  -0.40856  -3.76226
Te   16.29951  16.62360  14.36728  -0.53128  -0.17205  -0.23489
Te    3.88818   3.41014   7.35279   2.85231   9.40687   0.89104
Te    4.67832  13.28884  15.02144  -0.96858   0.18100   0.71358
Te   18.68531   3.01913  16.43167   0.50282   1.80805   0.08582
Te    8.89950  10.11753  15.09296  -0.21931  -0.15960   0.24037
Te    0.00565  13.03050  17.94402  -1.18906   0.72302  -0.47786
Te    7.54159  15.65457  13.57400   0.27263  -0.29224   0.31457
Te    4.82278   7.60012   7.03146  -0.72683  -0.97544   0.92526
Te    5.89338  19.53048   2.06063  -0.38995  -2.07801   2.31869
Ge   16.31908   5.30201  13.26413   0.35684   0.10717   0.58168
Te    3.23241   6.76570   0.66918   3.96864  -0.33114   2.81036
Te    6.02098   8.05796   1.06116   3.68649  -0.81651  -4.00888
Te    7.58824  19.21286  12.36075   0.70563  -1.51975  -0.94335
Ge    1.42231   1.93938   3.02322   3.06370   2.52548  -2.40347
Te   14.49256  11.71445  17.65376   0.00742  -0.31869  -2.42606
Ge    1.92557  19.89488  10.60351   2.04991  -3.22239  -0.15322
Te   13.76171   5.58156  12.25140   0.14729   0.25288  -0.28662
Te    5.11284   3.24950   2.86814  -1.12250   0.59506   1.24241
Te    1.27991  14.16042  10.96995   3.57049   1.42025   2.63133
Te    1.77940  16.17937   4.01637   2.25016  -1.25110   0.63271
Ge   16.42060   0.11695   1.63016   1.94676  -2.65939   2.13653
Te    1.06796   0.28277   7.74908  -2.13427  -4.93893  -3.34955
Te    7.34709   9.28084   6.37067   1.13666  -0.21477  -0.13752
Te    5.96615  16.77177  11.40304  -0.51797  -0.35910  -0.51304
Te    0.85229   4.01437   1.75069 -15.67008 -10.51913 -12.84618
Te    0.81313  12.77702   0.69603   1.85193  -0.11595  -2.94075
Ge   13.20758  11.04136   3.04793  -1.18201   0.76622   2.22806
Te    8.38826  18.87402  18.48821   2.33535  -4.47766   1.57079
Te    8.63789  11.56803   8.91337  -0.72394  -0.08366  -0.06987
Te   18.75553  19.41231   0.09917  -2.35571  -6.05954   4.60097
Te   11.16607   8.06922  14.16870   0.10671   0.22907   0.34721
Te    6.43731  13.70403   9.83958  -0.05910   0.19442  -0.35833
Te   20.18889  16.66634  12.70695  -0.41124  -0.92811  -0.04830
Te   10.16233  13.56890  16.40902  -0.45676  -0.06365  -0.35727
Ge    9.83491  16.49867   2.16715   0.93129  -3.49908   4.35153
Ge   19.18941   4.67578   9.68173  -4.07306   0.37207   1.97837
Te    1.27601  10.27942   3.33951   3.51974   2.04993   7.28895
Ge    7.75251  16.07881   1.00442  -1.60099   0.65182  -0.55576
Te   10.96603  16.36020  18.73913   0.64440   0.43770   0.17492
Te    2.35107  11.24633  18.04736   3.62755   1.25774   2.88961
Te    9.31255  16.68004   7.07607  -0.72457  -0.48512  -0.84637
Te   13.79163  14.42231  16.36294  -0.04308   0.50639  -1.01215
Te   14.45713   0.21961  11.30881   1.04077  -0.04109   0.74745
Te    6.35231   6.66139  14.59858  -0.58806   0.09652   0.18284
Te    6.87613   0.36355  17.62953   0.15665   2.72575  -0.00593
Ge    6.58842   1.10153  13.06728  -1.00253   1.85341   0.82335
Te    5.53054  18.50954   6.07560   0.53638  -0.66180   0.28351
Te   11.47589   9.66130   5.89659   0.25050   0.60901  -0.21404
Ge   18.01340  11.22220   6.07918  -0.31989  -0.57062   0.27010
Te   14.53351   2.09031   7.61576   0.60800   1.91803  -0.53192
Te    8.43718   4.66456   6.31184  -0.27163   0.14313  -0.12354
Te    3.48847   2.37563   0.41714   1.03125  -0.14557   1.90259
Te   18.40546  13.80897  12.73447  -0.57327  -0.38723   0.24380
Ge   14.38188   3.00920  10.34942   0.56226   0.12398   0.14968
Te    0.33937  16.52797   1.11236  -0.58474  -0.43459  -0.51591
Ge    5.23240  12.07671  18.24379   0.51021   0.02783   0.18648
Te    3.93108  12.77096  12.26707   1.14162  -0.20455   0.06163
Te    2.15193   8.71070  19.51342   2.84256   3.01624  -3.82112
Te   13.16883   9.55548  12.31844   0.40974   0.64762   0.23171
Ge   16.15591   3.15714  17.16075  -0.76663   0.51900  -2.33954
Te    8.76400  13.74695   1.42513  -0.92233  -2.70520   1.64863
Te    0.15577   7.64728   3.14947  -1.59815  -0.48711   4.48248
Te   18.50359  14.02108   6.94337  -1.69237   0.46100  -0.85017
Te   13.22921   6.84023  17.18120   1.33075  -0.02611  -1.22119
Te    0.39031  12.22523  14.04670  -0.94162   1.58559  -1.28284
Te    0.78689  17.03639  15.53432   3.42817  -1.55210   0.94358
Te    4.91103   9.33945   2.83823  -1.94160   2.36631   4.02219
Te    8.41452   8.35713  11.71680  -0.12336  -0.10456  -0.89549
Te    8.41448   5.54903  19.93385  -1.92076   4.42265  -1.34402
Te   19.36885   2.25723   4.38940  -6.10259   2.32179  -2.24527
Ge   12.31418   4.99302  20.07926   0.56918   0.62240  -2.87730
Ge    3.59568  14.24164   7.97691  -0.60700  -0.34839  -0.05924
Ge    9.68108   1.25673  17.32097   0.54336   0.38783  -1.78140
Ge    1.96906   2.36734   6.51306  -3.60088   1.61863  -1.95836
Ge    4.95044  18.84712  18.80075  -0.66541  -0.43073  -0.18448
Ge   10.83627   6.11768   6.85243   0.20954  -0.49154   0.68137
Ge   18.55862  14.48085   3.27368  -1.20460   0.12327   0.09539
Ge    5.29534   3.23384  10.09506  -0.43048   1.94028  -0.15280
Ge    1.60153  18.74783  17.41469   2.68350  -0.14247  -2.24183
Te    1.04105  10.51714  16.01117  -1.35112  -2.38888  -2.18000
Ge    3.61587   8.41215  16.29386   0.81930   0.36812  -0.22784
Ge    0.95770   1.36866   9.77111   1.84263   3.63639   2.30274
Ge   14.55073   9.28291   3.61484   1.37845  -2.07215   0.54980
Ge   18.02304   8.33406  12.06012   0.27617  -0.37677   0.76513
Ge   17.29805  10.00242  14.19419  -0.17244  -0.39090   0.16676
Ge   16.19486   6.15440   8.57748  -0.21720   0.12851  -0.51134
Ge   11.87099  11.79941  18.94032   1.60324   2.06049  -3.43735
Ge   11.95545   3.43763   4.99830  -1.50709   2.43362   0.37209
Ge    1.89198  14.96603  17.61200   0.66106   0.74251   1.15559
Ge    7.11424  20.15535  15.31769   0.34587  -1.26389  -3.35900
Ge   10.34067   7.48373   4.82668   0.14350  -0.09745  -0.72775
Ge   15.37651  16.91426   5.78913  -0.06274  -0.03816   0.22800
Ge   18.08820   2.65516   1.38558  -0.67297   1.10875   0.52209
Ge    0.88490   2.77234  12.83339   0.10353  -7.02247   1.08534
Ge    1.02745   8.30521   9.05199   1.67165   0.52688   2.22422
Ge   18.83651   9.04518  16.52166  -0.78825   0.38852  -0.24341
Ge    9.67612  18.03969   0.74811  -0.20693  -0.72845  -5.67038
Ge   13.95178   8.75446  18.85256   0.48079  -0.49149  -0.31732
Ge    3.20026  15.60919  15.64127   1.54155   0.29708  -0.72131
Ge    4.01448   3.95166  18.20163   0.25607   1.46929  -0.37649
Ge    4.29379  19.40432  16.02181   0.71920  -3.11056   0.73440
Ge   14.97344   4.53028   3.28438  -0.19285   0.37830   0.77080
Ge    0.04898   2.96666   8.61152  -0.51655   1.50770  -2.34348
Ge   13.14483  18.61857  17.73642  -0.52411   0.24837  -0.19187
Ge    8.27821   3.09271  14.56822  -0.16385  -0.29817   0.18071
Ge   18.71452  12.31197   1.05683  -3.25763   0.11655   0.42254
Ge   17.11923   9.56140   3.02622   0.00000  -0.04345  -0.23045
Ge    0.53666  18.30774  10.88558  -3.53247  -2.28066  -0.26601
Ge    0.87271   5.47384   9.06756   2.99877   1.51887  -0.30215
Ge   14.42478   3.15810  14.94591   0.30021   0.05505   0.18834
Ge   14.89254   9.04533  15.13698   0.43818   0.52953  -0.26251
Ge   19.00492   8.57427   5.83107  -1.58178   0.46925  -0.47949
Ge   15.68915   0.79015  17.09474  -0.88633  -1.42985  -0.65754
Ge   17.61032   0.41793   3.53687   0.11549  -0.93782   2.30062
Ge    5.49105  10.29775   8.37866  -0.27762   0.15692   0.02199
Ge   18.09641  16.58315   5.91165  -0.12754  -0.03008  -0.31904
Ge   13.21655   6.88835   4.44805  -0.07076  -0.16859  -0.03506
Ge    3.43113   0.95134  11.18148   4.35712   3.35100   1.00073
Ge    3.04867  17.04642  19.72883  -0.13696  -0.62971  -0.15923
Ge    6.56590   6.49479   4.94418   0.13807   0.48000  -0.17379
Ge   16.69320  10.52315   0.34464   0.79962  -0.78612   0.39879
Ge   19.57806  10.00464  19.38466  -2.82022  -0.11099  -4.01768
Ge    7.02964   2.63604  19.06121   0.66060   1.48563   0.36094
Sb    5.98514   2.04605   5.83711   1.70665  -0.02840   0.49807
Sb   13.50625  18.77174   0.24368  -0.06454  -1.05549  -0.01365
Ge   15.36238   1.97922   3.63050   1.08565   0.50562  -0.45249
Ge    1.32842   7.54173  15.78945  -0.78077  -0.84562  -0.36916
Ge    8.17579  15.65717  18.33273  -0.30379  -0.41288  -0.02189
Ge   19.06092  14.91852  16.47869  -0.32030   0.24500  -0.35449
Ge    3.25665   4.77656  10.76926   0.01479   0.46096   0.11047
Ge   10.67929  10.69315   3.30059  -0.67312  -0.21011   0.04253
Ge    6.31757   9.11742  13.21077  -0.28993  -0.15156   0.25101
Sb    0.35057   7.33441   0.56608  -1.26604  -1.76344  -1.16115
Ge    3.83302   3.41703  13.23814   0.30936  -0.18350  -0.22172
Sb   10.29360  19.80629   5.48551   0.16701  -1.68053   0.44042
Ge   14.89194  19.59101   4.80611   0.82051  -1.19748   0.06061
Sb    3.89813   1.00577   7.66701   2.55673  -5.93817   1.81922
Ge   11.70344   0.88597  11.87159  -0.51143  -0.17669   0.07568
Ge   20.29030   7.46123  18.23563  -0.47778  -0.35590  -1.67791
Ge   14.25041  11.05472  20.10467   1.37546  -0.64264   0.03554
Ge   17.67794   5.58799  18.63281  -0.08676   0.80573   0.33922
Ge   10.26217  10.57565  11.17495  -0.34686   0.82146   1.75685
Ge    3.71758   6.62274  13.51991   0.03541   0.07760  -0.18998
Ge    0.78477  20.14905   2.72686  -4.26469   8.89735 -10.23470
Sb    0.94713   7.66885   6.63123   0.35456  -2.04050  -1.14331
Ge    0.62163  14.21507   2.62539   0.12139   1.86351   1.47480
Ge    5.80761   0.68154   0.10532  -0.34633   0.75974  -1.11472
Ge    9.48916   4.20496   3.65781   0.28705  -0.47588   0.02681
Ge    6.41360   1.20884  10.51998   0.37052  -1.36646  -0.53880
Ge   11.20955  14.26884   0.71751   1.18484   0.13758  -2.61894
Sb   12.65787   0.21879   8.83447   0.80882   4.12508   3.63259
Ge    2.59615  17.66075  12.88151  -0.16026  -0.04377  -0.12802
Ge   14.01533   5.08161   6.83782   0.26110   0.44550  -0.28807
Ge    2.52535  12.63938   5.64582   2.84348   0.20533   0.81289
Ge   19.65774   3.88418  19.42031  -0.45834   0.63873  -0.71081
Ge    0.84199   0.98809   4.90644   2.11217  -3.38366   4.80139
Sb   10.65604  14.88920  13.67287  -0.00004   0.01962   0.36779
Ge   11.71234  15.87275   9.05970   0.43737   0.78030   1.30801
Ge    5.67280  17.10592  15.71342  -0.27656  -0.28292   0.32850
Ge   10.21885   5.28889   9.34298  -0.03564  -0.06473   0.01755
Ge   18.87342  14.59805  19.98065  -0.16627   0.31372  -0.09557
Ge   19.83178  20.06577  14.11405  -2.89243  -1.85059  -2.50263
Ge    5.52185  17.07971   0.26020  -0.36500  -0.02605   0.50898
Ge    3.39243   6.36725   4.79101   0.70955   0.74999   1.30616
Ge    9.26815   3.74728  17.29125  -0.07309   0.52252  -0.32507
Ge   19.78373   1.35845   0.15183   1.65547   2.81801   2.14465
Ge    2.73586   9.01800   5.15395   1.75343  -0.32158   0.44175
Sb   10.56230   6.41298  17.95465  -0.73668  -0.09590  -0.58129
Ge    9.42551   1.34530   3.99041   0.28301   1.39748  -0.54065
Ge    0.40089  13.25578   4.87910  -1.64447   0.18334   0.25753
Ge    6.61046  11.08828   0.25128   0.12567   0.32450  -0.55051
Ge    4.80732  11.37568   5.02435  -1.00329   0.40498   0.50201
Ge   17.33222   3.17593   7.57487  -0.99500  -0.17983   0.83477
Sb   16.08387  13.16730  19.61335   1.66248   2.01555  -0.95728
Ge    2.85415  10.09444  13.68934   0.47516  -0.49824  -0.10478
Ge    2.29271  16.97874   9.72470   2.13935  -0.75554  -0.04102
Ge   11.29912   9.55965  17.04554  -0.23669   0.02012  -0.14416
Sb    2.48177  18.98342   5.46604   3.46209  -2.96438   5.43505
Ge   14.70453   0.86602   0.64919  -2.81925  -0.61247  -1.64927
Sb   11.29935   7.44063  10.97089   0.73197  -1.32397   0.02369
Ge    9.52826   0.81165  13.51126  -0.13400   1.24951   0.41122
Ge    0.66735   5.23741   4.41313  -3.03176   1.27257   4.41623
Ge    6.29281   3.16542  16.43046   0.01684   0.64763  -0.28082
Sb    0.87047   0.79958  15.85462   3.14421   0.86986   1.07593
Ge   12.77573  12.22197   1.15283  -2.31579   1.93749  -0.62468
Ge   10.72617   0.22980  19.20686   1.13361  -0.90823  -0.58612
Ge   13.59242  15.96494  20.02960   0.11709  -0.34475  -0.08776
Ge   13.26464   9.19288   0.96699   0.64861  -1.74340   1.14681
Sb    7.62627  17.83707   8.92569  -0.85312   1.16517   0.80551
Sb    7.46411   1.93338   2.22761  -0.16376   1.54973   2.06120
Sb    3.39985  12.02789   1.86189   2.10641  -2.02316   2.27116
Ge    3.75808   9.51621  10.66159  -0.00978  -0.28317  -0.10597
Ge   17.48234   3.54262  11.90316   0.24706  -0.31483  -0.46060
   300
 config_type=liqu Lattice="   20.31669   0.00000   0.00000   0.00000  20.31669   0.00000   0.00000   0.00000  20.31669"  Properties=species:S:1:pos:R:3:forces:R:3 energy=-40519.3100 pbc="T T T"
Ge    1.52428   1.64862  19.50652   0.24713   0.52061  -0.03718
Ge    7.16552   3.76010  12.12746  -0.26112   0.05353  -0.13102
Ge    9.43101  14.23840   8.87469   0.08479   0.17514   0.23698
Ge    0.00231   0.40850  18.26341  -0.76566  -1.40881  -0.08846
Ge   10.35019  19.93935   2.00853  -1.67633  -0.06916   0.59671
Ge    7.63892   2.79898   8.48082   0.22221  -0.24029   0.00543
Ge   12.82778   3.98431  17.11776  -0.06045  -0.22282  -0.11915
Ge    8.76243  13.02669  19.03680  -0.25035  -0.57060  -0.27615
Ge    2.32120   2.41689  16.45669   2.51452   4.73420   2.13564
Sb   16.96285   0.95022  19.21573  -0.75614   1.08772  -0.37738
Sb    2.11290   4.72982  15.07837  -0.18194   0.76885   0.12357
Ge    0.52291  18.18549  19.13478  -0.75548  -0.35415  -0.25657
Ge   11.71163  14.89559   3.25169   1.46917  -1.00999   0.46440
Ge   10.57443  19.15282   9.59876  -0.49232  -0.65251   0.02695
Ge    5.72879   4.77240  20.17685  -0.12297   0.27113  -0.12246
Sb   18.14354   5.70681   1.23852  -1.01497   1.60320  -0.02888
Sb    2.89086   5.55465   3.12987  -1.82270  -3.99673  -4.85458
Sb   11.06571   5.86980   1.77083   0.16942  -0.47246   1.61422
Ge   10.56054   1.55537   7.33211  -0.39324   0.59583   0.23220
Ge    6.59001  11.73634  13.22956   0.51243   0.15711  -0.42458
Ge   11.14717   2.71864  20.04796   1.38224  -0.89307  -1.29442
Ge   14.15994   7.82409   9.16488  -0.17915   0.05692   0.09538
Ge   15.16130  12.64029  11.43179  -0.23602   0.23118   0.00274
Ge   19.16023   6.21074  13.86647  -0.53096   0.51515  -0.14642
Sb    0.60221  12.71232   8.25797   0.80830  -0.03299   0.42774
Ge   15.82028   8.94738   7.31557   0.07373   0.12562   0.07793
Sb   16.74948   1.33526  14.27233  -0.39410   0.40094  -0.25103
Ge   18.67667   8.29303   9.72682  -0.00116   0.34517  -0.88987
Ge   12.89088   1.40809  17.43487  -0.08957  -0.38498  -0.06843
Sb   18.48124  17.86362  15.33307  -0.94928  -0.96324  -0.41850
Ge    0.25799  10.92570   6.13531   0.09489  -0.79015   0.86168
Ge   11.76283   2.97563  10.12643  -0.45377   0.43386  -0.16534
Ge    3.25855  14.18019   0.10670   0.71920   0.53164  -0.56459
Ge   10.34839  11.03471   0.23865  -0.97456   0.79035   0.93543
Sb   11.98868  15.90813   6.32848   0.93507  -0.18618  -0.93431
Te   10.71270   8.38743   0.39850  -0.37618  -0.47431   0.35926
Sb   10.74366   9.44523   8.89105   0.63556  -0.29601  -0.43211
Sb    4.25769   1.24391  17.95237  -3.16111   0.37232  -0.06063
Ge   18.48406   0.72413   8.56810  -0.03676   0.03248   0.24738
Ge   13.40485  10.66112   8.18454   0.12781  -0.40678  -0.09344
Ge    7.19739  12.41413  15.67233   0.99046   0.05871   0.83891
Ge   16.34834   8.42928  17.55812  -0.13097  -0.22902  -0.04385
Ge    1.88661   5.14708  19.26521  -1.04458  -0.58506  -0.24065
Ge    2.60067  10.35622   7.76970   0.43433   0.18576   0.10989
Ge   17.03800  19.02309  10.77859  -0.15550   0.24638  -0.48580
Ge   15.33138  16.90430   8.76549   0.07803   0.22488  -0.27779
Ge   16.57734   8.03491  20.21553  -0.08224  -0.79779  -0.03854
Ge    8.05479   7.61686   8.72540   0.16655  -0.39298   0.71842
Ge    1.94416   0.17741  13.30426  -0.13581  -1.03550  -1.27433
Sb   15.97710  19.88774   8.05331   0.46794  -1.17415  -0.09662
Sb    9.93698   5.32807  14.70929   0.16625  -0.03130   0.14639
Ge    7.22947  10.98884   4.29609   0.10665   0.04392  -0.78318
Sb    0.16333  18.17467   4.12125  -2.20549   0.07170   0.91720
Ge   15.90852   3.85965  19.32199   0.98188   0.35674   0.76263
Sb   11.71044  13.52282  11.17130   0.39038  -0.04185   0.05961
Ge    5.07794   7.83526  18.72900   0.48327  -0.36278  -1.04528
Ge   18.98548  11.61966   3.63465  -1.28443   0.09993  -0.10698
Ge    5.20206  15.74820  18.24921  -0.06213  -0.09665  -1.06852
Ge   12.61867  16.74558  14.55940   0.00357  -0.19500   0.33604
Ge   19.60234   1.00624  11.70930  -0.91049   0.31359  -0.59019
Ge    3.57682  20.12856   2.11902  -1.84549   0.40076  -1.07847
Sb    8.31990  18.51338   3.53256   0.58588  -0.67392   0.68382
Ge   16.89503   5.18612   5.31643  -0.67192   0.28612   0.39717
Ge   11.48543  18.01317   3.35727   1.04942   0.74467   0.60588
Ge    6.34485  14.75528   2.92656   0.10745   0.02886  -0.76281
Ge    7.76228   7.69945  17.95165  -0.79250  -0.35213  -0.70752
Ge   14.44644  15.20600   3.88191  -0.31018  -0.05672   0.20216
Sb    1.59286  11.30778  11.00390  -0.59015  -1.56597  -0.63468
Ge   14.64732  13.44940   2.04069   1.10935   0.23693   0.37799
Ge    6.38487   5.63808   2.38717   0.47354  -0.14438   0.12499
Ge    9.19313   9.55059  18.69561   0.00979   0.88751  -0.70081
Ge   10.29094  18.06868  16.20430   0.66552   0.24123  -0.33694
Ge    8.79949  12.99463  11.83136  -0.80174   0.05639  -0.15646
Ge   18.54305   0.14181  16.19278  -1.08841   2.72007  -1.12641
Ge    0.74157   5.11851  12.51364  -0.07203   0.56758  -0.51320
Ge    0.32120   8.99494  11.99586  -0.04905  -0.42592   0.06202
Ge    1.81139  18.91489   0.92043   0.16772   0.24566  -0.18503
Ge   15.33198  17.99565   2.40565  -0.31909  -0.20425  -0.21251
Sb   19.42986  15.43064   9.33875  -0.56017  -0.20810   0.53849
Ge   12.56627  18.76821   6.94363   0.34944  -0.72216  -0.20051
Ge    0.34832  17.43068   8.01560   0.09514   0.51564   0.25125
Ge    6.19602  13.97841  19.97394  -0.64399  -0.33427   0.29794
Ge    0.96007  15.31600   6.72870   0.93439  -0.19276   0.10182
Ge   17.89907  11.46848  17.84725  -1.23428   0.95935  -1.29178
Ge    8.65508   8.08178   2.63796   0.39654   0.10392   0.45262
Sb   13.09442   1.27339   4.68178  -0.40664  -0.54360  -0.42454
Ge   14.94817   5.78912   1.31948  -0.00263   1.25391  -1.35594
Ge   19.16481  12.21370  10.46542  -0.89281  -0.41716  -0.13960
Sb   13.82583   3.23196   0.37277  -1.65786   3.96618   0.76762
Sb   19.43493   4.18088   6.30658  -1.80709   0.94306   1.64649
Sb   10.45534  18.62275  13.25864   0.57151  -0.29671   0.02804
Ge   14.39742  12.64910  14.01335   0.01841  -0.39590   0.12748
Ge    9.09562   3.22427   0.58007  -1.81437   0.42083   0.83616
Ge    5.87307   6.16144   9.59325  -0.11408   0.13925   0.04086
Ge   17.11228  10.92856   8.87936   0.30266  -0.37868   0.08137
Ge   12.13638  13.47136   7.80376  -0.02060  -0.26647  -0.01083
Ge   17.01802  16.25870  20.28397  -0.87413   0.70896   0.29299
Ge    4.42510  18.79146   8.65006   0.69486  -2.12532   1.23180
Sb   11.79002   3.55688  13.03013   0.02846   0.14913   0.34841
Sb    3.78177   0.77508   4.49787   0.27234   0.93540   0.64547
Ge   18.07709  18.88592  17.80591  -0.97110  -2.06436   1.87399
Ge   13.82888  12.60383   5.10647   0.18778   1.11682   0.46629
Ge    3.61349   1.07296  14.82554   2.18228   0.08377  -0.71452
Ge   12.29489   0.71019   1.23144   1.08259   0.66293  -0.11545
Ge   14.06517  15.09073  10.92631   0.10108  -0.06369  -0.18414
Ge    8.40735   0.47011  20.23829   0.21262   0.33997   1.02219
Te    0.27690  10.07989   1.17086  -2.27017  -0.24960  -2.29852
Te   16.27146  16.61586  14.38018  -0.92942  -0.36135  -0.34356
Te    4.03331   3.80529   7.41349   1.67863   2.16014   0.27885
Te    4.67443  13.25065  15.03830  -0.67517  -0.19700   0.71061
Te   18.74157   3.34814  16.46399   0.52872   0.05987  -0.65090
Te    8.80579  10.08858  15.10338  -0.11463  -0.24462   0.22957
Te   20.28576  13.04766  17.95464  -0.75955   0.46797  -0.85698
Te    7.48395  15.67426  13.51814   0.33902  -0.61958   0.45288
Te    4.82579   7.55197   7.02924   0.32931  -0.51248   1.55848
Te    5.87821  19.33724   2.23955   1.38012  -0.92117  -0.23797
Ge   16.37647   5.34381  13.31865   0.26400  -0.11677   0.39668
Te    3.39496   6.78394   0.73303   0.71873  -0.79486  -0.23570
Te    6.23298   7.98557   0.88746   1.32667   1.19397  -0.54133
Te    7.71048  18.93395  12.27481   0.26187   0.90859  -0.03462
Ge    1.67282   2.31343   3.12995   1.57319  -0.41385   0.64123
Te   14.49979  11.66875  17.54123  -0.12285  -0.63808  -1.54350
Ge    2.15383  19.67285  10.60779   0.53326  -0.82330  -0.13818
Te   13.74204   5.60016  12.21905   0.21783   0.13565  -0.26326
Te    5.09416   3.26696   2.96375  -2.06763   1.40312   1.48731
Te    1.56153  14.09971  11.16944   0.03152   2.21608  -0.26938
Te    1.90182  16.12580   4.05723   3.60419   0.77189   1.11911
Ge   16.54627  20.20022   1.72144  -0.73619  -1.10256  -0.75859
Te    0.95926   0.04659   7.67319  -1.81396  -0.89616   0.75461
Te    7.36025   9.31707   6.37006   0.82456  -0.04386  -0.33184
Te    5.93949  16.74199  11.37971  -1.02656  -0.52317  -0.62207
Te    0.32465   3.96288   1.83588   1.28945   2.20566  -1.68581
Te    0.88761  12.73428   0.51857   1.05444   1.54901   0.34984
Ge   13.17797  10.98915   3.39648  -0.67855   0.88817  -0.40574
Te    8.56523  18.53494  18.63379  -1.68453   0.21730  -2.06298
Te    8.60159  11.58545   8.91056  -0.48987  -0.29403   0.07064
Te   18.64835  19.23781   0.28351  -0.15474  -0.97524   1.08646
Te   11.16771   8.08550  14.19295   0.06958   0.08523   0.18569
Te    6.48923  13.73296   9.85102   0.02288   0.15331  -0.17847
Te   20.19418  16.62783  12.77936   0.01208  -1.64193   0.46563
Te   10.13789  13.57991  16.38054  -0.30712  -0.18130  -0.31800
Ge    9.98653  16.31571   2.46423  -1.34165  -0.14280   0.01180
Ge   18.92074   4.68888   9.78043  -1.13969   0.98514   0.88252
Te    1.35866  10.34679   3.57656   1.06184   0.89222   1.76327
Ge    7.57716  16.11167   0.92972   0.82614  -0.28045   0.30355
Te   10.99490  16.37776  18.75378   0.45876  -0.52853  -0.25002
Te    2.44981  11.28009  18.13021   2.31493   1.75436   0.69536
Te    9.30306  16.64587   7.07190  -0.54499  -0.31573  -0.38353
Te   13.79331  14.42518  16.31312  -0.09147   0.57452  -0.99882
Te   14.53546   0.26807  11.27706   0.78371  -0.09667   0.88237
Te    6.36218   6.68665  14.61335  -0.64064   0.09099   0.23731
Te    6.75737   0.57687  17.53170   2.96233  -0.80685  -1.71963
Ge    6.31808   1.52426  13.21509  -0.53878  -0.34630   0.42359
Te    5.54412  18.44209   6.14131   1.49637  -0.71129   0.01438
Te   11.47474   9.62264   5.92690   0.47643   0.77200  -0.15149
Ge   17.98345  11.23658   6.06575  -1.16657  -0.20507   0.30551
Te   14.53970   2.12748   7.59015   0.62630   1.44191  -0.51169
Te    8.42834   4.59304   6.29562  -0.39543   0.37406  -0.10876
Te    3.57604   2.32785   0.49184  -0.17297   0.98790   1.68084
Te   18.45224  13.79362  12.76628  -0.81053  -0.40267  -0.09770
Ge   14.39866   3.05887  10.41021   0.66589   0.33392   0.04027
Te    0.31702  16.53106   1.06506  -0.45351  -0.60288  -0.19952