50
config_type=amor Lattice="   11.36344   0.00000   0.00000   0.00000  11.36344   0.00000   0.00000   0.00000  11.36344"   Properties=species:S:1:pos:R:3:forces:R:3 energy=-22046.9391 pbc="T T T"
Se      2.617175379      5.561155551      6.690939884      0.217443871     -0.418174934      0.536434039
Se      3.455047062      2.470141717      3.590922798      0.788222897      0.058216213      0.016384656
Se      8.366871885      5.283392376      3.772706455      0.085596052     -0.432587490     -0.509997119
Se      0.762088946      9.051031187      0.438427433      0.162791913     -0.227573732      0.011877580
Se     10.872483767      6.697368385      8.659294572     -0.371029027     -0.303956327     -0.177510751
Se      4.733760942      2.867333331     11.237855430     -0.311357877      0.112470137      0.357931587
Se      0.603511534     10.853712524      8.260077376     -0.072578331     -0.336869329      0.080489060
Se      4.698296008      2.227935825      7.326809144     -0.122180218      0.363122426     -0.247358780
Se      5.645711496      5.869931259      1.490256548     -0.021614705     -0.676082491      0.078628118
Ge      4.212846846      4.392156250      9.148123243     -0.058101494      0.030243567      0.121533859
Se      6.211124880      5.867437238      8.657684917      0.162327438      0.229720014     -0.795976132
Ge      0.619278185      5.156919227     10.388712176     -0.088046963      0.101430289     -0.063624924
Ge      7.053772805      6.429533105     10.838019371     -0.124030034     -0.117478824      0.201010174
Se      1.108715186      3.289663784      8.780640707     -0.217217587      0.044482548     -0.705966651
Ge      6.165686208      9.471705320      4.813925826     -0.086591662      0.111732692      0.045396805
Se      8.261573179      0.668695124      0.051771304      0.428863819     -0.057166890     -0.612458145
Se      7.518699544      1.904333988      4.525264484     -0.077311056      0.021958547     -0.990149645
Ge      3.552055429      7.355660232      1.237651705     -0.134568223     -0.267629547     -0.265877113
P       9.199793785      7.266130744      0.295138598      0.266047986     -0.066018184     -0.495966624
Ge     10.153510466      5.117040002      1.228834892     -0.200180629     -0.200588456     -0.198031730
Ge      7.041194575      2.518499866      1.253500215      0.036066346      0.105227175     -0.235184206
Se      0.888461616     10.614547571      3.948031517      0.037978265     -0.490261308      0.254605811
Se      8.470499843      3.994298910     11.061862780      0.066738146     -0.159793991     -0.565682214
Ge      7.241240618     10.013095304      0.930955497     -0.060371473      0.302244030     -0.406918632
Se      2.278505913      6.515296535      3.160584194     -0.679322743      0.313466957      0.362468859
Se      0.722892245      1.522880653      0.767461488     -0.534734901      0.380159543     -0.125699620
Ge      0.805468419      7.231033402      6.452006605     -0.054505585     -0.032210984      0.133476262
Ge      6.181605589      0.448648822      6.161962388     -0.005708854      0.027778291      0.009340816
Ge      1.869432711      1.170380656      9.768997067     -0.411180943     -0.072987288      0.056816657
Ge      2.456610271      0.447332204      2.329859835     -0.095567238     -0.067612145      0.032539492
Se      4.092801390      8.697783509      5.737909739     -0.730477540      0.390573546      0.592813083
Se      6.045224714      8.875494161     10.506693424     -0.176392911      0.112860064     -0.548579582
Ge      3.881258005      9.900891705      0.632915054      0.014019804      0.069070080     -0.098060184
Se      0.105856840      3.424244719      4.141482081     -0.394912325     -0.527164375     -0.123666739
Ge      2.204564424      2.909394398      5.834252593      0.107873993      0.190889850      0.017556812
Se      2.868651443      6.336343054     10.416488537      0.208317566      0.487095631     -0.372010919
Ge      4.248981323      6.384009599      4.887970247     -0.118436816     -0.036475491      0.059321620
Ge      0.556173187      0.811160519      6.070622389     -0.097263789     -0.374726462      0.001437387
Ge      4.586440183      0.930609417      9.587175584      0.189628956      0.195063896      0.140650452
Ge      7.030883186      4.112639068      5.816152719      0.077710032     -0.035141947      0.004268869
Ge      6.902788474      7.290809550      3.285544605      0.007078636     -0.198407080     -0.085576383
P       8.682701211      8.482972321      2.015797202      0.297280775      0.184704935      0.442258598
Ge      1.805255478      4.046876842      2.279928415     -0.012578683     -0.166550496      0.057924456
Ge     10.384145781      5.268927151      5.415538599      0.061657379     -0.184134015     -0.074782359
Ge     10.663125495     10.715969208      1.744344472      0.441493800      0.009950408     -0.102962010
Ge     10.374343443      8.920472844      9.873350356      0.359938820      0.032709309      0.189629084
Ge      9.310198502      1.437518809      6.280368372      0.096792942     -0.006919698      0.039531352
Se      5.483877623     10.652368157      2.518979910     -0.250610414      0.615431353      0.419069173
Se      9.236276704      3.831227796      7.165448718      0.150445460      0.200510507      1.050893144
Se      7.977194038      0.143067904      7.818961215      0.099365722     -0.464152748      1.026518736
50
config_type=amor Lattice="   11.36344   0.00000   0.00000   0.00000  11.36344   0.00000   0.00000   0.00000  11.36344"   Properties=species:S:1:pos:R:3:forces:R:3 energy=-22046.9399 pbc="T T T"
Se      2.617175379      5.561155551      6.690939884      0.217979809     -0.415291138      0.536874444
Se      3.455047062      2.470141717      3.590922798      0.789694342      0.054475884      0.017624988
Se      8.366871885      5.283392376      3.772706455      0.084443980     -0.430431870     -0.513235772
Se      0.762088946      9.051031187      0.438427433      0.166501459     -0.225832884      0.011837565
Se     10.872483767      6.697368385      8.659294572     -0.370389933     -0.304247495     -0.177350987
Se      4.733760942      2.867333331     11.237855430     -0.311396710      0.113930786      0.358877553
Se      0.603511534     10.853712524      8.260077376     -0.069384441     -0.336568976      0.077404105
Se      4.698296008      2.227935825      7.326809144     -0.122098781      0.365423918     -0.245627549
Se      5.645711496      5.869931259      1.490256548     -0.019116303     -0.675480324      0.073968339
Ge      4.212846846      4.392156250      9.148123243     -0.059511108      0.032268005      0.121098691
Se      6.211124880      5.867437238      8.657684917      0.162544681      0.226781111     -0.790503001
Ge      0.619278185      5.156919227     10.388712176     -0.087831146      0.101028010     -0.063709432
Ge      7.053772805      6.429533105     10.838019371     -0.121383508     -0.119588352      0.204100722
Se      1.108715186      3.289663784      8.780640707     -0.216933253      0.045287072     -0.706820770
Ge      6.165686208      9.471705320      4.813925826     -0.087636821      0.111025653      0.045012571
Se      8.261573179      0.668695124      0.051771304      0.431185590     -0.058496860     -0.612926724
Se      7.518699544      1.904333988      4.525264484     -0.077738061      0.022249139     -0.989814635
Ge      3.552055429      7.355660232      1.237651705     -0.137600335     -0.268437346     -0.264198538
P       9.199793785      7.266130744      0.295138598      0.259671409     -0.068971086     -0.492120958
Ge     10.153510466      5.117040002      1.228834892     -0.199804950     -0.200912058     -0.199205064
Ge      7.041194575      2.518499866      1.253500215      0.032911929      0.105478999     -0.235124419
Se      0.888461616     10.614547571      3.948031517      0.037033446     -0.488253405      0.258995168
Se      8.470499843      3.994298910     11.061862780      0.064606332     -0.155134867     -0.568173554
Ge      7.241240618     10.013095304      0.930955497     -0.061363495      0.303390023     -0.405475972
Se      2.278505913      6.515296535      3.160584194     -0.677566325      0.316531594      0.362270313
Se      0.722892245      1.522880653      0.767461488     -0.534737376      0.379552063     -0.121783392
Ge      0.805468419      7.231033402      6.452006605     -0.054770939     -0.031401605      0.134711760
Ge      6.181605589      0.448648822      6.161962388     -0.005612517      0.027520933      0.008373371
Ge      1.869432711      1.170380656      9.768997067     -0.413935420     -0.073335476      0.055895171
Ge      2.456610271      0.447332204      2.329859835     -0.097055643     -0.066292561      0.034649739
Se      4.092801390      8.697783509      5.737909739     -0.728813776      0.391501761      0.593762406
Se      6.045224714      8.875494161     10.506693424     -0.171907798      0.112691902     -0.550877191
Ge      3.881258005      9.900891705      0.632915054      0.013086399      0.070815604     -0.098831516
Se      0.105856840      3.424244719      4.141482081     -0.395345487     -0.528512400     -0.125456411
Ge      2.204564424      2.909394398      5.834252593      0.107796010      0.189945568      0.015086128
Se      2.868651443      6.336343054     10.416488537      0.211539125      0.488710338     -0.371912037
Ge      4.248981323      6.384009599      4.887970247     -0.119164329     -0.035574431      0.059376148
Ge      0.556173187      0.811160519      6.070622389     -0.097864044     -0.376588701      0.002601379
Ge      4.586440183      0.930609417      9.587175584      0.192878536      0.193915744      0.139899006
Ge      7.030883186      4.112639068      5.816152719      0.079355434     -0.037611435      0.002301414
Ge      6.902788474      7.290809550      3.285544605      0.007447126     -0.198032455     -0.084896087
P       8.682701211      8.482972321      2.015797202      0.296652724      0.182596400      0.439954097
Ge      1.805255478      4.046876842      2.279928415     -0.013615443     -0.167055473      0.057169678
Ge     10.384145781      5.268927151      5.415538599      0.063206982     -0.185401760     -0.074914864
Ge     10.663125495     10.715969208      1.744344472      0.442537954      0.010737191     -0.105287922
Ge     10.374343443      8.920472844      9.873350356      0.361655557      0.033103352      0.189915584
Ge      9.310198502      1.437518809      6.280368372      0.097863093     -0.006628127      0.039241813
Se      5.483877623     10.652368157      2.518979910     -0.249774397      0.615388607      0.419383364
Se      9.236276704      3.831227796      7.165448718      0.147127208      0.199364635      1.052754266
Se      7.977194038      0.143067904      7.818961215      0.098259155     -0.464781234      1.026389095
50
config_type=amor Lattice="   11.36344   0.00000   0.00000   0.00000  11.36344   0.00000   0.00000   0.00000  11.36344"   Properties=species:S:1:pos:R:3:forces:R:3 energy=-22050.5640 pbc="T T T"
Se      2.230600181      5.577564340      6.593604290      0.642691824      0.328782432      0.348447199
Se      3.324826831      2.445661125      3.874411772      0.636470166     -0.172806441     -1.022277127
Se      8.559051973      5.520403609      3.433630858     -1.137546439      0.112998192      2.355410251
Se      0.423098460      9.338198639      0.296274215      1.404016800     -2.196650490     -1.550929358
Se      0.385584130      7.607874035      8.511342194     -0.210320371     -0.320308060     -0.882444566
Se      4.868335760      2.483603153     11.143731764     -0.349516471      1.287290338      1.115014137
Se      0.418655876     11.175272014      8.095564660      0.799966988      0.444991540     -0.375211983
Se      4.704058603      2.051506832      7.779693866      0.236520014     -0.117991746     -0.898493821
Se      5.195255442      6.333241574      2.019150710      0.701120074      0.335444190     -0.528981070
Ge      3.617996203      4.849787328      9.251810826     -0.095858234     -0.049456445      0.244199184
Se      5.641185546      6.119160373      9.244277528      0.397488975      0.260503249      0.191785344
Ge     11.357131812      4.517459166     11.253300407      0.287314237     -0.095852372     -1.008007435
Ge      6.687467194      7.084738753      0.078730792      0.144712216     -1.986823504     -0.639794175
Se      0.593161265      2.570512774      9.465883394      0.213639107      0.985615534     -1.045949365
Ge      6.496198209      9.408455244      4.447506327     -1.273015517      0.625864385      1.253184011
Se      8.407979458      0.502287411     11.083634228     -0.388234918      0.557972895     -0.226908410
Se      7.370411175      1.960526285      4.575913983      0.678753304     -0.154019932      0.691817890
Ge      2.733031821      7.466546144      1.530959124      0.696555687      0.597628679      0.854276331
P       9.400938801      7.765431009      0.107331313     -0.379306498     -0.396939226      0.244871954
Ge      9.588501846      5.525136884      1.412991997      2.227520853      0.845867639     -1.372402913
Ge      6.948118301      2.037610580      1.170571584      0.463938450      0.828453746      0.406128566
Se      0.859664518     10.906138854      3.644851793     -0.703597802     -1.064595629     -0.060137388
Se      8.343039806      4.179857757      0.095270442     -1.124748868     -1.440108288     -1.131133626
Ge      7.227255834     10.226754090      1.015386045     -0.222127823      0.414093320      1.105960877
Se      2.294929960      5.786575264      3.445514534     -0.085712723      0.593628983     -0.587420157
Se      0.954349651      1.399130300      0.418621695     -1.104176070     -0.022887601      0.832600229
Ge      0.643096339      7.852976911      6.065451191      0.482957555     -0.617201850      0.854164104
Ge      6.082095777      0.189975420      6.354907154      0.518525337      0.837647084     -0.140042113
Ge      2.242829785      0.605231654      9.822641344     -0.141416541      0.503051358     -0.784612650
Ge      2.412880311      0.615535311      2.180732350      1.161137727     -0.068381931      1.134538687
Se      4.851928765      7.860519427      5.564400775      0.010789084      0.445161731      0.055278648
Se      6.030081067      9.221152531     10.683458033     -1.023621271     -0.077796089     -1.188136155
Ge      3.471168149      9.975734486      0.281479347      0.361271807     -0.451416126      1.030057663
Se      0.074128861      3.087945415      3.913073548     -0.529397911      0.246099191     -0.666332375
Ge      2.500174589      3.054873348      6.200240969     -0.661546756     -1.111645298      0.123661037
Se      2.272689762      5.748874640      0.022692777      0.210726032     -0.149572178     -1.557053147
Ge      4.444270991      5.388610456      4.982325744     -0.388576186      0.694532844     -0.005064781
Ge      0.645777804      0.756799913      5.730669570      0.625643520      0.906274103     -0.106352175
Ge      5.009584461      0.638826215      9.791133497      0.166626715     -0.755076187     -0.844829141
Ge      8.146161623      4.406156407      5.719153621     -0.545468997     -0.835633196      0.895632217
Ge      7.286345086      7.607757543      3.156550225     -0.384474098     -0.933433002     -0.801185571
P       8.926893558      8.850915823      1.939436034     -0.061981833     -0.148632285     -0.054222621
Ge      1.553947214      3.620229528      1.901186445      0.481772420      0.220013069      1.198589436
Ge     11.049206253      5.365714588      4.686669081      0.391084253     -0.054873999      0.569123394
Ge     10.459372281     10.844105619      1.264466616     -0.720700997      2.252757304      1.850092281
Ge     10.386763393      9.622118663      9.187289728     -0.870817642     -1.140249981      0.652434091
Ge      9.505206638      1.267911488      5.983089381     -0.259238720      0.858392004     -0.543297441
Se      5.060317280     10.712982366      2.436474121      0.614415114     -0.212029642     -0.414597752
Se     10.399866665      3.790459910      6.789830535     -1.165981773     -0.220968985      0.164831554
Se      8.380086491      0.088288291      7.648780386     -0.850351142     -0.333095405      0.296909793
50
config_type=amor Lattice="   11.36344   0.00000   0.00000   0.00000  11.36344   0.00000   0.00000   0.00000  11.36344"   Properties=species:S:1:pos:R:3:forces:R:3 energy=-22067.7706 pbc="T T T"
Se      3.052192781      5.603216870      6.553102292     -0.216143863     -0.140476324      0.501960549
Se      3.413480052      2.273581967      3.671470689     -0.432867574      0.357947863     -0.067900833
Se      8.450997280      5.259430385      3.438739130      0.180337405     -0.195402588      0.375010532
Se      1.174754392      9.001019911      0.089988840     -0.237828718     -0.044663688      0.227212553
Se     10.593688902      6.678467805      8.453988866      0.409842920      0.098204325      0.333226383
Se      4.552823294      2.782870398     11.108891753      0.094123765      0.206774543      0.170206240
Se      1.068464105     10.459246422      8.136609389     -0.205303823      0.004853020      0.017602313
Se      4.914646422      2.297354836      7.549084339     -0.624842252      0.206571905     -0.079560586
Se      5.950553561      5.677803683      1.381081134     -0.817679438      0.399374102     -0.204448384
Ge      4.348492180      4.708508909      8.708314841      0.166825571      0.400002134      0.522637218
Se      6.560458144      5.990837030      8.305407589     -0.607839892      0.176971222      0.282435781
Ge      1.346778591      4.478266589     11.318692823      0.089355762     -0.244303732     -0.161126189
Ge      7.237096662      6.413684153     10.605967060     -0.214744598     -0.005703125      0.524386927
Se      1.348621399      3.013245791      8.922708473     -0.224903174      0.023187865      0.442609065
Ge      6.488494097      9.535913984      4.808697348     -0.205964038     -0.221133523      0.444893039
Se      7.907855930      0.693511342      0.234608928     -0.053121050      0.137231789      0.010814139
Se      7.216655685      1.880266069      4.438847446      0.506116886      0.414449522      0.035455795
Ge      3.893907943      7.150043387      1.257607351     -0.358403436     -0.402087307      0.404832488
P       9.284963292      7.224504097      0.265521666      0.066110079      0.092347250     -0.336965173
Ge     10.022598668      5.000464956      1.083453962     -0.071549224     -0.042466293      0.232622451
Ge      6.539941838      2.609449746      1.368599076      0.252676066     -0.307591137     -0.154698652
Se      0.292783670     11.010149084      3.674137146      0.180305465     -0.184558104      0.121430820
Se      8.230053337      3.903359661     11.127179643      0.269663145     -0.174198232     -0.093574131
Ge      7.112979784      9.967991899      1.044771695      0.093949550     -0.081471788     -0.466139727
Se      2.340106200      6.551546585      3.158948815     -0.038927476     -0.226235384     -0.323548047
Se      0.650721427      1.513984700      0.763253874      0.180870303     -0.311580363     -0.295964264
Ge      0.948835932      7.509906831      7.050935334      0.240073472      0.184147765     -0.470408802
Ge      5.984560950      0.490335752      6.124838577      0.254139710     -0.279568651      0.144857338
Ge      1.918668117      0.764089660      9.947786975      0.286673420     -0.079937451     -0.254741713
Ge      2.335524064      0.378943146      2.390199528      0.018863022     -0.179922801     -0.034445921
Se      4.193392838      9.180751094      5.765509412     -0.070817313     -0.071201129      0.086360582
Se      5.992126131      8.726243723     10.622883923      0.070697056      0.408102688     -0.093396434
Ge      3.695291504      9.603361042      0.644631534      0.073226033      0.654997509      0.033729480
Se     10.933636404      3.348469922      4.332963125      0.784831405      0.347113825     -0.328953678
Ge      2.518139580      2.979483405      6.708927079      0.045541373     -0.287918633     -0.720944491
Se      2.967440912      6.302904831     10.541528085     -0.354108835     -0.356727881     -0.260587745
Ge      4.362861305      7.031778132      4.718174092      0.134518820     -1.044055428      0.096506289
Ge      0.297075328      1.291110718      5.746281874     -0.061145609     -0.111158064     -0.237786875
Ge      4.826375823      0.782847128      9.754000563      0.053743792      0.025632153     -0.125526425
Ge      6.834189866      4.286091494      5.345717318      0.155835959     -0.367326392      0.107928962
Ge      6.989995574      7.195242351      3.121310925     -0.273843247      0.443771106      0.462374169
P       8.688403555      8.425260379      1.938800888      0.167446433      0.140879161     -0.191511711
Ge      1.692525091      3.869195120      2.834851014      0.074005870      0.081729328     -0.190578064
Ge     10.094985359      5.603867078      5.461678306      0.362187168     -0.635947543     -0.077946110
Ge     10.842159619     10.501129165      1.126884270     -0.423539325      0.437614708      0.414439853
Ge     10.729608755      9.064834047      9.501550635      0.021686146      0.267203130      0.128814597
Ge      9.020440951      1.600540007      6.339575209     -0.056512709      0.068253946     -0.040996189
Se      5.396794908     10.291322340      2.715423260     -0.058405544      0.384270664     -0.172832323
Se      8.768866886      4.057888111      7.078554641     -0.024938698     -0.194820106     -0.226873712
Se      7.664006142      0.452341591      8.011164286      0.348163969     -0.104807168     -0.321823089
50
config_type=amor Lattice="   11.36344   0.00000   0.00000   0.00000  11.36344   0.00000   0.00000   0.00000  11.36344"   Properties=species:S:1:pos:R:3:forces:R:3 energy=-22065.8755 pbc="T T T"
Se      3.291740285      5.209108879      6.643330396     -0.111564621     -0.184299731      0.271845789
Se      3.406855619      2.935878695      3.375544525     -0.092110234     -0.775878053     -0.159406410
Se      7.843866972      5.537586981      3.755413368      0.234509979     -0.397312063      0.137476028
Se      0.683455676      8.658564013      0.562947977     -0.200968469      0.090002746      0.579822260
Se     10.982572479      6.916571160      8.562412436     -0.888672698     -0.478827693      0.446578058
Se      5.058998474      2.201863723     10.803300447     -0.174079335      0.263097885      0.566026203
Se      1.054670273     10.077788224      8.586439129     -0.021279348      0.520932458      0.059129505
Se      5.247026048      1.742839466      7.127880582     -0.153598863     -0.010345827      0.687487964
Se      5.407873558      5.774383910      0.878850205      0.421818242     -0.327810116      0.028403794
Ge      4.211154645      4.155276710      9.177878564     -0.066623006      0.774203585     -0.438156333
Se      5.937999038      6.154388759      8.568161272      0.187171647     -0.161614522     -0.181071183
Ge      0.170707752      5.260250694     10.536997806     -0.020216736     -0.010043383     -0.248271249
Ge      7.198701448      6.394397080     10.584467626      0.210215048     -0.238617217      0.400665620
Se      1.423506838      2.752424782      8.721459125      0.104111254     -0.198527553      0.436817585
Ge      6.098950975      9.347898647      4.466621689     -0.415907159     -0.548461596      0.385792899
Se      8.219688490      1.011325104      0.885417437      0.034224217     -0.281187891     -0.472703425
Se      8.061809815      1.526178903      4.302269113     -0.236173583      0.470697748      0.877034613
Ge      3.364305633      7.194849647      0.866051528     -0.354408857      0.262071851      0.551856701
P       8.859550202      7.594443334      0.662619424      0.418708820     -0.532673349     -0.226488628
Ge      9.689355440      5.632522609      1.989516367      0.413924457     -0.015034715     -0.680507455
Ge      6.717892804      3.100761899      1.267740286      0.253879337     -0.071868998     -0.245940218
Se      0.566736050      0.017328269      3.485006557      0.050729653     -0.012485165      0.618602669
Se      8.956464583      4.228193306     11.259438686     -1.287569440      0.186854981      0.362128958
Ge      6.931551122     10.299353838      1.192574961      0.344733653      0.436006775      0.023642891
Se      2.147985745      6.189486844      2.854429034      0.004502319      0.855845948     -0.325956624
Se      0.840900613      1.312143938      0.337066296      0.733015039      0.733793693     -0.468583472
Ge      1.913527153      7.903956463      7.864577415      0.491768766     -0.078871102     -0.081109343
Ge      6.533675228      0.088983831      5.732567438      0.104990984      0.089383905     -0.209174141
Ge      2.645409950      0.656612862      9.930103532     -0.805881551      0.081279881     -0.259772344
Ge      2.603432154      0.750049995      2.193894073     -0.253582118      0.316797280      0.146238085
Se      3.910953541      8.834216386      5.486830199     -0.176511505     -0.414240724      0.104952385
Se      6.162699572      9.373473924     10.537934289     -0.318494663      0.478082566     -0.488689642
Ge      3.031098289      9.790276529      0.726619797      0.314482970      0.138564227     -0.534703079
Se     11.054394510      4.113228298      4.673694008      0.153024675      0.040803476     -0.118153973
Ge      2.704609780      2.750397427      6.622496884      0.548331654      0.355931327     -0.688887122
Se      2.508752176      6.241098659     10.197872124      0.659485846     -0.270804304     -0.318430442
Ge      4.128758937      6.518576286      4.498074673      0.130792057     -0.273292428      0.494139880
Ge      0.524337304      1.930545036      5.391512777     -0.470258508     -0.723877843      0.147657004
Ge      6.627615358      0.627046581      9.468819182      0.226881140     -0.194842820      0.336960258
Ge      6.721321984      3.508357090      5.673096139     -0.049748839     -0.144093714     -0.316611523
Ge      6.198293284      7.119389989      2.876375143      0.021306287      0.295571651      0.337879924
P       8.108157354      8.657840166      2.366272311      0.220753562     -0.095964355     -0.558224208
Ge      1.344590521      3.846312364      2.504282664     -0.363195051      0.175423100     -0.215652103
Ge      9.516883378      5.476351604      6.251327463      0.160143473      0.827077641     -0.343856059
Ge     10.843141238     10.907370640      1.277170588     -0.829885535     -0.729326304     -0.055110164
Ge     10.326983183      9.108766653     10.046574111      0.432893570     -0.032570774     -0.321671451
Ge      9.445856640      1.358637786      6.559490916      0.249176189      0.336537140     -0.488920798
Se      5.065194236     10.696099949      2.678882120     -0.051053082      0.077791040     -0.253041195
Se      8.526414054      3.647080326      7.499560873     -0.151267521     -0.713899943      0.403926722
Se      8.211038504     10.725443523      7.338181752      0.315359855     -0.160107703      0.281421280
50
config_type=amor Lattice="   11.36344   0.00000   0.00000   0.00000  11.36344   0.00000   0.00000   0.00000  11.36344"   Properties=species:S:1:pos:R:3:forces:R:3 energy=-22068.0097 pbc="T T T"
Se      3.049445714      5.176879274      6.634245665     -0.389345833     -0.196854019      0.707872524
Se      3.100555062      2.416765491      3.184027786     -0.180245387     -0.338861117     -0.174981567
Se      8.810992716      5.188530918      3.513883415     -0.114755472      0.331081651      0.025793528
Se      0.857669919      9.280323719     10.943981357     -0.605742844     -0.700153012      0.147286739
Se      0.746815132      7.279643104      7.831553976     -0.115303502     -0.216089370     -0.499117728
Se      4.442316290      2.685174280     11.021506991      0.225254436     -0.338960230      0.749967585
Se      1.586015620     10.541499052      7.552146738      0.265341971      0.274622475     -0.605740966
Se      5.513038723      2.265109929      7.800557010     -0.470588212      0.117566862     -0.086886684
Se      5.421410450      6.258996361      1.518111165     -0.195003770     -0.284128636      0.118058764
Ge      3.800588673      4.491764357      9.169614644     -0.134969991     -0.102521179      0.037605740
Se      5.830852327      5.968207573      9.025490601      0.331441894      0.075216214     -0.227070864
Ge      0.065852901      6.655295406     10.242249413     -0.087706340      0.811737651     -0.289943092
Ge      7.029155775      5.754036706     11.099135649     -0.291644239     -0.251174051     -0.219059488
Se      1.309767967      2.522987994      8.529643195      0.036680742      0.469573648     -0.515393741
Ge      6.071505087      9.510634747      4.766684917      0.131843435     -0.544815505      0.116436891
Se      7.848623455      0.829835524      1.373712864      0.295425645      0.031617815     -0.127581119
Se      7.520355541      1.883067065      4.856183135      0.091873846     -0.097067235     -0.438844891
Ge      2.948550643      7.486031442      1.453040435     -0.007878603     -0.683247571     -0.194637118
P       8.848075033      7.168700272      0.056134983     -0.045592175      0.450481256      0.277578535
Ge     10.000460799      5.189130832      1.139291419     -0.299566969     -0.094594323      0.367456229
Ge      5.174296175      3.148253203      2.054377106      0.789682045      0.023983897     -0.594679037
Se      0.134079442     10.986115248      3.155335665     -0.038935066     -0.159910687     -0.103802574
Se      8.170918164      3.656881305      0.252273179     -0.158571851      0.373656149     -0.299969463
Ge      6.805380353     10.060423558      1.171567707      0.765467766     -0.012738729      1.748005011