50
config_type=amor Lattice="    0.00000   0.00000   0.00000   0.00000   0.00000   0.00000   0.00000   0.00000   0.00000"    Properties=species:S:1:pos:R:3:forces:R:3 energy= -9844.7262 pbc="T T T"
Se      7.149556211      1.741915094      6.699902311      4.813130522     -5.143825045    -11.692192826
Se      5.551421979      1.463983651      0.042677683      0.606754477     -8.026757961      0.541727426
P       0.641660217      0.475703714      9.403267575      5.365806163     -0.206437126      7.210908875
Se      1.718518257      1.942764951      0.812808646     -1.408419198     -2.037661535     -0.888488867
Se     10.649123906      2.334548582      6.433554990     -3.125791548      3.826486195      0.098169117
Se      4.242947037      5.678249915     11.120772784      7.457117906     -7.713010437     -2.793041720
Se     10.572550568      6.329385235      9.392460131    -16.066259614      6.966668783    -14.172510603
Se      2.840768752      5.895562502      5.269859547    -13.854643306      1.787596665     -5.695471884
Se      5.884222276      7.224068316      3.054163775     -4.346065127     22.172511549     -4.056825870
P       9.387422415     10.899005390      4.707073435     -1.188033709    -12.360858156     -4.361355750
Se      0.229972649     11.157339034      3.612457527      6.813097818    -11.193394187     -2.883548154
Ge     11.109792899      7.403553798      0.186338260     -2.645976881     -3.992899925      4.820267711
Ge      5.554579104      8.256692240      9.323221751     -5.835967370      2.113861568      0.360291616
Se      9.715707122      2.706906669     11.351251327      3.287469478    -14.168051591     -3.385251442
Ge      2.960391094      4.353397696      3.352336158      1.475362755     -4.862034489      3.751242300
Se      8.810534653      8.975190103      3.205887926     -0.784485658     -0.230954040     -0.260504517
Se      3.722788338      9.579903659     10.487393477     -4.249289451      4.956844833     -1.937842016
Ge      8.267008025      4.678131369      0.415361571      1.819077666     -1.767410636     -0.685085144
P       1.997659397     10.349675358      6.695448004     -4.794411964     -1.901317486      4.930433493
Ge      2.351511240      7.442503441     10.620493645      2.928946113      0.777437716     -7.239194554
Ge      0.580703099      3.889129429     10.808516040      1.186936936     -9.496138369     -1.255743869
Se      5.182762094      4.490420301      8.241436881    -13.743719454     19.333635443     -3.817516301
Se      7.288071631      5.694653746      5.434738867    -16.282796568      3.252427696      5.473317444
Ge      3.801316009      6.437446374      2.039729418      2.690988276      4.027523160     -2.950588554
Se      7.590249144      8.397169692     10.812980134      5.966132123     -4.670582581      1.925928563
Se      9.684053182      9.799455692      6.970641389      4.711815651     -0.312221818      9.961614303
Ge      9.409055293      6.818737539      4.633698309      7.718079720      3.832036370     -0.251299267
Ge      8.054685350     11.287608042      8.402512393      3.891837662      3.291734013     -1.846206149
Ge      8.154872817      6.115582231      9.680481589      3.126942481      6.578358996     -0.157584309
Ge      4.167618572      1.306032385      2.280713933     -1.382825042     -0.645777773     -5.635700672
Se      3.000330410      2.211008122      5.029418640     11.011560107     10.896849539      2.143484134
Se      0.456243034      5.276522627      1.684807085    -16.617727408     11.097519162     -3.575072891
P       7.659442725      4.472957109      7.566227746     -1.863618238      3.080210120     -3.488913357
P       5.385984594      3.457930203      3.131564113     -7.701254677      2.698767897      4.805204424
Ge      4.131653435      8.681802136      4.423008499      0.639458200     -6.323004304     -5.021069682
Se      5.556304226     10.891472054      3.904417259     11.752780180     -2.100422360    -11.467687079
Ge      8.804230276      2.046761923      4.749627922     -2.936851320      6.296567465      6.134398179
Ge     11.163784009      2.553291814      2.229790611      1.020503523      2.280133469     -4.155101620
Ge      4.796921791      6.747773040      7.153302859     -0.954114327      1.593630780      2.646083356
Ge      3.074072838      0.078288203      8.652197140     -1.212874846     -5.089580487      6.687785390
Ge      2.634490411      4.467286356      7.336171338      4.781433578      1.592648738      0.985156325
P       0.454853831      9.914371725      8.194507479      3.059419989      1.601257762      0.360908628
Ge      9.508389467      6.224590735      2.002309116      0.614850190      6.553676530     -1.422079319
Ge      1.066882881      0.901979675      5.593007358     -8.815401879     -1.250306664      0.330629906
Ge      5.888790326      3.709234523      0.712001290     -1.458869945      0.406500448     -3.965497269
Ge      4.943644727      0.455881854      6.242376510     -4.251400564      2.056018855     -4.024352657
Ge      6.574134631      9.327364954      1.799499694      2.308676219     -0.494066186      2.542822372
Se      2.528016839      8.432345279      2.394708019     -1.964341308      3.808633343     -0.479996996
Se      6.237700263      9.845618086      7.430704397     -6.628708081      1.428108268     -5.150970055
Se      2.385284665      6.935560976      8.135927710      1.560188368      0.298198484     -3.017643671
50
config_type=amor Lattice="   11.36344   0.00000   0.00000   0.00000  11.36344   0.00000   0.00000   0.00000  11.36344"    Properties=species:S:1:pos:R:3:forces:R:3 energy=-10576.7120 pbc="T T T"
Se      7.149556211      1.741915094      6.699902311      0.102521725     -1.513625751     -2.846299328
Se      5.551421979      1.463983651      0.042677683     -0.215027000     -4.281659248     -2.200661547
P       0.641660217      0.475703714      9.403267575      1.185251343      1.042898518      3.739479553
Se      1.718518257      1.942764951      0.812808646      2.248598418     -0.230025614     -1.695760278
Se     10.649123906      2.334548582      6.433554990     -0.455043530      2.105617332      1.344756667
Se      4.242947037      5.678249915     11.120772784      2.694664222     -5.113081799     -1.947091615
Se     10.572550568      6.329385235      9.392460131     -4.834473706      4.219808962     -9.531357027
Se      2.840768752      5.895562502      5.269859547     -3.167337075      3.515680829     -2.688242127
Se      5.884222276      7.224068316      3.054163775     -1.249498242      7.537677224     -0.115985761
P       9.387422415     10.899005390      4.707073435     -1.903896867     -5.095399229     -2.554592338
Se      0.229972649     11.157339034      3.612457527      3.963006109     -2.141490330     -2.744661521
Ge     11.109792899      7.403553798      0.186338260      1.089239324     -3.736005119     -0.684087702
Ge      5.554579104      8.256692240      9.323221751     -2.628011442      0.232494909      0.023896801
Se      9.715707122      2.706906669     11.351251327     -1.133311685     -5.101349140     -0.720103034
Ge      2.960391094      4.353397696      3.352336158      0.571849690     -2.350807837     -0.098603347
Se      8.810534653      8.975190103      3.205887926      1.252823677     -0.222990037      0.300010911
Se      3.722788338      9.579903659     10.487393477     -1.141898114      1.181813863      2.824166710
Ge      8.267008025      4.678131369      0.415361571      0.738254267     -0.177773981     -1.311090398
P       1.997659397     10.349675358      6.695448004     -0.577758026     -0.352413656     -1.611812429
Ge      2.351511240      7.442503441     10.620493645     -1.677894090      0.233782698     -2.167062945
Ge      0.580703099      3.889129429     10.808516040      1.079240039     -3.460830708      0.080550681
Se      5.182762094      4.490420301      8.241436881     -4.774366397      6.762615369      0.308948708
Se      7.288071631      5.694653746      5.434738867     -5.115896001      1.385140023      1.804377380
Ge      3.801316009      6.437446374      2.039729418      1.944047338      1.303635638     -1.069482745
Se      7.590249144      8.397169692     10.812980134      2.633048939     -0.933836572     -0.418710530
Se      9.684053182      9.799455692      6.970641389     -0.646185728     -2.055406556      2.454075605
Ge      9.409055293      6.818737539      4.633698309      3.626065255      1.171805955      0.499558311
Ge      8.054685350     11.287608042      8.402512393      1.904807249      2.359469538     -0.068289737
Ge      8.154872817      6.115582231      9.680481589      0.736299250      1.627799842     -0.057209264
Ge      4.167618572      1.306032385      2.280713933     -0.621032645     -0.233879623     -1.018368123
Se      3.000330410      2.211008122      5.029418640      3.646920990      1.685019008      1.091135324
Se      0.456243034      5.276522627      1.684807085     -6.924145928      6.395258933     -4.907213929
P       7.659442725      4.472957109      7.566227746      1.433354015      0.808726930     -0.475692358
P       5.385984594      3.457930203      3.131564113     -2.938582276      0.598765186      2.300365558
Ge      4.131653435      8.681802136      4.423008499      0.564229077     -3.569534968     -1.201238513
Se      5.556304226     10.891472054      3.904417259      2.937349391      0.588707822     -2.806845216
Ge      8.804230276      2.046761923      4.749627922     -2.313802758      3.773558582      1.167681685
Ge     11.163784009      2.553291814      2.229790611     -0.951764051      1.898460200     -0.416396148
Ge      4.796921791      6.747773040      7.153302859      0.550588395      2.141029806      0.054019962
Ge      3.074072838      0.078288203      8.652197140      0.264360222     -1.152904901      2.968596733
Ge      2.634490411      4.467286356      7.336171338      3.430540941     -0.413999598      0.597763492
P       0.454853831      9.914371725      8.194507479     -0.238618420      0.188742724      1.838565972
Ge      9.508389467      6.224590735      2.002309116     -0.780063803      1.835926804      0.406238119
Ge      1.066882881      0.901979675      5.593007358     -3.242070132     -0.646254922     -0.442785895
Ge      5.888790326      3.709234523      0.712001290     -0.598131833      3.610066295     -2.075079696
Ge      4.943644727      0.455881854      6.242376510     -3.098063011      2.110654096     -1.440748699
Ge      6.574134631      9.327364954      1.799499694      0.776118304     -0.219280904      0.608262829
Se      2.528016839      8.432345279      2.394708019     -3.334227092      2.041258770     -0.806055558
Se      6.237700263      9.845618086      7.430704397     -1.514940472     -1.620776415     -2.296023111
Se      2.385284665      6.935560976      8.135927710     -2.902270366      0.670052782     -0.047416592
50
config_type=amor Lattice="   11.36344   0.00000   0.00000   0.00000  11.36344   0.00000   0.00000   0.00000  11.36344"    Properties=species:S:1:pos:R:3:forces:R:3 energy=-10756.2648 pbc="T T T"
Se      7.149556211      1.741915094      6.699902311     -0.371031534     -0.211738322     -1.217535587
Se      5.551421979      1.463983651      0.042677683     -0.502722955     -3.086915033     -1.883900899
P       0.641660217      0.475703714      9.403267575      0.777598118      0.514124994      2.620819552
Se      1.718518257      1.942764951      0.812808646      2.160396162     -0.463706124     -1.875323382
Se     10.649123906      2.334548582      6.433554990     -0.480454619      1.493074620      1.312318641
Se      4.242947037      5.678249915     11.120772784      1.863803884     -3.594481179     -1.684448561
Se     10.572550568      6.329385235      9.392460131     -0.394519441      0.279588112     -5.453554294
Se      2.840768752      5.895562502      5.269859547     -1.285881506      2.674485818     -2.275290364
Se      5.884222276      7.224068316      3.054163775      1.890191940      1.217344331      1.609812915
P       9.387422415     10.899005390      4.707073435     -1.027376076     -2.379027805     -0.735952097
Se      0.229972649     11.157339034      3.612457527      2.639777878     -0.835053446     -2.438863985
Ge     11.109792899      7.403553798      0.186338260      1.099297273     -1.528228906     -0.405264985
Ge      5.554579104      8.256692240      9.323221751     -0.872921307      0.048153389      0.030134170
Se      9.715707122      2.706906669     11.351251327     -1.103724944     -3.116172706     -0.356249788
Ge      2.960391094      4.353397696      3.352336158      0.366675365     -1.678296968     -0.377792766
Se      8.810534653      8.975190103      3.205887926      0.198346525      0.061852701     -0.253302254
Se      3.722788338      9.579903659     10.487393477     -0.516272630      1.035086469      2.482046200
Ge      8.267008025      4.678131369      0.415361571      0.604193748      0.208232056     -0.526987277
P       1.997659397     10.349675358      6.695448004      1.374792535     -0.720627227     -2.571436121
Ge      2.351511240      7.442503441     10.620493645     -1.212841856      0.214902369     -0.404845330
Ge      0.580703099      3.889129429     10.808516040      0.807628649     -1.446074733     -0.416331511
Se      5.182762094      4.490420301      8.241436881      0.539746948     -0.470721662      1.154088501
Se      7.288071631      5.694653746      5.434738867     -2.986160931      0.398322035      0.750391793
Ge      3.801316009      6.437446374      2.039729418      0.787715578      0.080832759     -0.143881157
Se      7.590249144      8.397169692     10.812980134      1.223525564      0.613407888     -0.250173352
Se      9.684053182      9.799455692      6.970641389     -0.751383692     -1.496796671      0.751183078
Ge      9.409055293      6.818737539      4.633698309      1.769506177      0.386660167      0.036739158
Ge      8.054685350     11.287608042      8.402512393      0.581293573      1.180258267      0.611908331
Ge      8.154872817      6.115582231      9.680481589     -0.380736259      0.445633324     -0.225227485
Ge      4.167618572      1.306032385      2.280713933     -0.509525986     -0.505363342      0.009795490
Se      3.000330410      2.211008122      5.029418640      2.032861364      0.231950390      0.528673583
Se      0.456243034      5.276522627      1.684807085     -0.794285760      2.982402599     -1.146898108
P       7.659442725      4.472957109      7.566227746      1.590730997      0.240721347      0.114555303
P       5.385984594      3.457930203      3.131564113     -1.069756600     -0.079667840      1.077981322
Ge      4.131653435      8.681802136      4.423008499     -0.087883606     -1.194113638     -0.021137912
Se      5.556304226     10.891472054      3.904417259      1.176773563      0.131650514     -1.145368482
Ge      8.804230276      2.046761923      4.749627922     -1.446550534      1.556321516      0.056245496
Ge     11.163784009      2.553291814      2.229790611     -0.561938117      0.219597653      0.587092859
Ge      4.796921791      6.747773040      7.153302859      0.844136885      1.576117000     -0.527930405
Ge      3.074072838      0.078288203      8.652197140     -0.263275251     -0.603028404      1.679115758
Ge      2.634490411      4.467286356      7.336171338      1.057607638     -0.784295817      0.210149973
P       0.454853831      9.914371725      8.194507479     -0.622798771      0.429908665      1.599977779
Ge      9.508389467      6.224590735      2.002309116     -0.966506435      1.211966070      0.518998028
Ge      1.066882881      0.901979675      5.593007358     -1.265875177     -0.088227514     -0.372007810
Ge      5.888790326      3.709234523      0.712001290     -0.581499469      2.712516862     -0.534591800
Ge      4.943644727      0.455881854      6.242376510     -1.508870795      1.443042909     -0.393519106
Ge      6.574134631      9.327364954      1.799499694      0.565776110      0.377795722     -0.112891389
Se      2.528016839      8.432345279      2.394708019     -2.890152557      1.752165057     -0.342652613
Se      6.237700263      9.845618086      7.430704397     -0.417754551     -1.762146065     -0.947295665
Se      2.385284665      6.935560976      8.135927710     -2.337919834      0.618144191      0.114858652
50
config_type=amor Lattice="   11.36344   0.00000   0.00000   0.00000  11.36344   0.00000   0.00000   0.00000  11.36344"    Properties=species:S:1:pos:R:3:forces:R:3 energy=-10818.2865 pbc="T T T"
Se      7.149556211      1.741915094      6.699902311     -0.146969765     -0.084688906     -0.737754713
Se      5.551421979      1.463983651      0.042677683     -0.371171797     -2.345678307     -1.341336171
P       0.641660217      0.475703714      9.403267575      0.741887711     -0.165278222      1.648209300
Se      1.718518257      1.942764951      0.812808646      1.603248111     -0.318138344     -1.784316715
Se     10.649123906      2.334548582      6.433554990     -0.551038392      1.061065347      1.198240908
Se      4.242947037      5.678249915     11.120772784      1.444321949     -2.400785673     -1.345539166
Se     10.572550568      6.329385235      9.392460131     -0.083719820     -0.020696980     -3.732819047
Se      2.840768752      5.895562502      5.269859547     -0.940213657      2.152346137     -1.576750993
Se      5.884222276      7.224068316      3.054163775      1.704664002      0.413878353      1.248407502
P       9.387422415     10.899005390      4.707073435     -0.343861198     -2.053881257      0.088922496
Se      0.229972649     11.157339034      3.612457527      1.954650325     -0.447573262     -1.992098325
Ge     11.109792899      7.403553798      0.186338260      0.920446214     -0.703862958     -0.023373142
Ge      5.554579104      8.256692240      9.323221751     -0.291721089      0.176508643      0.094966855
Se      9.715707122      2.706906669     11.351251327     -0.744760161     -2.185945559     -0.245844822
Ge      2.960391094      4.353397696      3.352336158      0.496627581     -1.356839435     -0.286975933
Se      8.810534653      8.975190103      3.205887926     -0.148912474      0.427672799     -0.221089078
Se      3.722788338      9.579903659     10.487393477     -0.382832177      0.834978346      1.676492743
Ge      8.267008025      4.678131369      0.415361571      0.246592842      0.167242319     -0.244914223
P       1.997659397     10.349675358      6.695448004      1.479752571     -1.072615029     -1.968702518
Ge      2.351511240      7.442503441     10.620493645     -0.641980429      0.190060145     -0.166002532
Ge      0.580703099      3.889129429     10.808516040      0.495964678     -1.256453140     -0.530552530
Se      5.182762094      4.490420301      8.241436881      0.708291029     -1.186350451      0.918701814
Se      7.288071631      5.694653746      5.434738867     -2.234237011     -0.079781061      0.666018934
Ge      3.801316009      6.437446374      2.039729418      0.307754150     -0.204004335      0.209181573
Se      7.590249144      8.397169692     10.812980134      0.560501705      0.842574747      0.125638489
Se      9.684053182      9.799455692      6.970641389     -0.710559421     -1.035286550      0.119498795
Ge      9.409055293      6.818737539      4.633698309      1.153711680      0.277246061     -0.051924245
Ge      8.054685350     11.287608042      8.402512393      0.063451155      0.547090770      0.651051608
Ge      8.154872817      6.115582231      9.680481589     -0.533652934      0.240715500     -0.355395784
Ge      4.167618572      1.306032385      2.280713933     -0.287342985     -0.425134516      0.303076336
Se      3.000330410      2.211008122      5.029418640      1.598842529      0.009905795      0.213606946
Se      0.456243034      5.276522627      1.684807085     -0.034008735      2.620395114     -0.103239819
P       7.659442725      4.472957109      7.566227746      1.006141528      0.244028593     -0.107281195
P       5.385984594      3.457930203      3.131564113     -0.638817192     -0.472686102      0.597330452
Ge      4.131653435      8.681802136      4.423008499     -0.354314126     -0.608217287     -0.031820804
Se      5.556304226     10.891472054      3.904417259      0.632610526      0.003438729     -0.694813309
Ge      8.804230276      2.046761923      4.749627922     -1.091333933      0.854097201     -0.015586090
Ge     11.163784009      2.553291814      2.229790611     -0.348976129     -0.386827956      0.651454224
Ge      4.796921791      6.747773040      7.153302859      0.815412778      0.840604668     -0.521518801
Ge      3.074072838      0.078288203      8.652197140     -0.678143539     -0.456376801      1.075708474
Ge      2.634490411      4.467286356      7.336171338      0.438505622     -0.470428802      0.126338088
P       0.454853831      9.914371725      8.194507479     -0.452610844      1.006237904      1.073350164
Ge      9.508389467      6.224590735      2.002309116     -0.593134078      0.962101041      0.409003506
Ge      1.066882881      0.901979675      5.593007358     -0.642273979      0.147017004     -0.235147222
Ge      5.888790326      3.709234523      0.712001290     -0.254431118      1.933547946      0.157347878
Ge      4.943644727      0.455881854      6.242376510     -0.526465726      1.136155706     -0.052221922
Ge      6.574134631      9.327364954      1.799499694      0.385840991      0.327428075     -0.178845427
Se      2.528016839      8.432345279      2.394708019     -2.283999202      1.514685749     -0.164918702
Se      6.237700263      9.845618086      7.430704397      0.170493731     -1.500874356     -0.665032429
Se      2.385284665      6.935560976      8.135927710     -1.845265486      0.503015279      0.095165898
50
config_type=amor Lattice="   11.36344   0.00000   0.00000   0.00000  11.36344   0.00000   0.00000   0.00000  11.36344"    Properties=species:S:1:pos:R:3:forces:R:3 energy=-10847.0046 pbc="T T T"
Se      7.149556211      1.741915094      6.699902311      0.136122168     -0.008342293     -0.470601908
Se      5.551421979      1.463983651      0.042677683     -0.316004117     -1.887231361     -1.034631715
P       0.641660217      0.475703714      9.403267575      0.640055928     -0.555909008      1.023969467
Se      1.718518257      1.942764951      0.812808646      1.139907119     -0.121431975     -1.491228843
Se     10.649123906      2.334548582      6.433554990     -0.510951173      0.810223082      1.067112571
Se      4.242947037      5.678249915     11.120772784      1.166114234     -1.598472283     -1.103135801
Se     10.572550568      6.329385235      9.392460131     -0.078435718     -0.043319156     -2.695233440
Se      2.840768752      5.895562502      5.269859547     -0.823732400      1.765968943     -0.829027164
Se      5.884222276      7.224068316      3.054163775      1.381746585      0.114933657      0.856928679
P       9.387422415     10.899005390      4.707073435      0.041996168     -1.947166124      0.397945929
Se      0.229972649     11.157339034      3.612457527      1.474716446     -0.247251299     -1.629397607
Ge     11.109792899      7.403553798      0.186338260      0.668192113     -0.556767980      0.065167004
Ge      5.554579104      8.256692240      9.323221751     -0.179542307      0.313393376      0.112603054
Se      9.715707122      2.706906669     11.351251327     -0.536809188     -1.585128759     -0.286325083
Ge      2.960391094      4.353397696      3.352336158      0.520179816     -1.082514596     -0.305242359
Se      8.810534653      8.975190103      3.205887926     -0.008474831      0.654105861     -0.147820326
Se      3.722788338      9.579903659     10.487393477     -0.290942931      0.707315866      1.096094081
Ge      8.267008025      4.678131369      0.415361571      0.072923000      0.056593440     -0.207942687
P       1.997659397     10.349675358      6.695448004      1.320358977     -1.204404768     -1.371946754
Ge      2.351511240      7.442503441     10.620493645     -0.352207693      0.130096708     -0.161474775
Ge      0.580703099      3.889129429     10.808516040      0.260656030     -1.143379711     -0.341812800
Se      5.182762094      4.490420301      8.241436881      0.375101414     -1.010437823      0.703570052
Se      7.288071631      5.694653746      5.434738867     -1.836895486     -0.273307526      0.677088136
Ge      3.801316009      6.437446374      2.039729418      0.095226624     -0.292048245      0.327515428
Se      7.590249144      8.397169692     10.812980134      0.335341434      0.834993182      0.299031872
Se      9.684053182      9.799455692      6.970641389     -0.651096799     -0.741609723     -0.262479312
Ge      9.409055293      6.818737539      4.633698309      0.923596264      0.281587032     -0.089431585
Ge      8.054685350     11.287608042      8.402512393     -0.012426283      0.263717287      0.582350850
Ge      8.154872817      6.115582231      9.680481589     -0.362494648      0.087276774     -0.464055251
Ge      4.167618572      1.306032385      2.280713933     -0.030494262     -0.298022494      0.358294064
Se      3.000330410      2.211008122      5.029418640      1.405375143     -0.035442063      0.125143752
Se      0.456243034      5.276522627      1.684807085      0.073765400      2.232600038      0.088166198
P       7.659442725      4.472957109      7.566227746      0.618337569      0.256825260     -0.321923556
P       5.385984594      3.457930203      3.131564113     -0.503703938     -0.681303511      0.192914611
Ge      4.131653435      8.681802136      4.423008499     -0.397896704     -0.427971579     -0.052227908
Se      5.556304226     10.891472054      3.904417259      0.414154438      0.027511020     -0.407810876
Ge      8.804230276      2.046761923      4.749627922     -0.879701202      0.550286164      0.037278105
Ge     11.163784009      2.553291814      2.229790611     -0.215520620     -0.497684241      0.531736840
Ge      4.796921791      6.747773040      7.153302859      0.756787046      0.416025101     -0.516044822
Ge      3.074072838      0.078288203      8.652197140     -0.912344642     -0.308647236      0.757945096
Ge      2.634490411      4.467286356      7.336171338      0.290701030     -0.257633363      0.091788449
P       0.454853831      9.914371725      8.194507479     -0.339577357      1.361724694      0.895730377
Ge      9.508389467      6.224590735      2.002309116     -0.363082122      0.798717291      0.353127556
Ge      1.066882881      0.901979675      5.593007358     -0.482439661      0.153864155     -0.156516509
Ge      5.888790326      3.709234523      0.712001290     -0.039990238      1.478903068      0.497761581
Ge      4.943644727      0.455881854      6.242376510     -0.083387097      0.917039033      0.063056984
Ge      6.574134631      9.327364954      1.799499694      0.307190338      0.172548552     -0.091230714
Se      2.528016839      8.432345279      2.394708019     -1.841582968      1.465957716     -0.135968383
Se      6.237700263      9.845618086      7.430704397      0.313782010     -1.264898454     -0.594400181
Se      2.385284665      6.935560976      8.135927710     -1.610148158      0.465277372      0.008776181
50
config_type=amor Lattice="   11.36344   0.00000   0.00000   0.00000  11.36344   0.00000   0.00000   0.00000  11.36344"    Properties=species:S:1:pos:R:3:forces:R:3 energy=-10862.7164 pbc="T T T"
Se      7.149556211      1.741915094      6.699902311      0.314757096      0.063383659     -0.347347598
Se      5.551421979      1.463983651      0.042677683     -0.315882753     -1.601660186     -0.890079311
P       0.641660217      0.475703714      9.403267575      0.535707691     -0.724415542      0.640454138
Se      1.718518257      1.942764951      0.812808646      0.910026069     -0.027928145     -1.201627255
Se     10.649123906      2.334548582      6.433554990     -0.397967176      0.727589426      0.972860658
Se      4.242947037      5.678249915     11.120772784      0.963103733     -1.106209305     -0.901951707
Se     10.572550568      6.329385235      9.392460131     -0.027270502     -0.069179269     -2.023384861
Se      2.840768752      5.895562502      5.269859547     -0.712180761      1.439126878     -0.320412965
Se      5.884222276      7.224068316      3.054163775      1.102201333     -0.111280032      0.613008375
P       9.387422415     10.899005390      4.707073435      0.193785626     -1.804237646      0.466646470
Se      0.229972649     11.157339034      3.612457527      1.138001840     -0.145874115     -1.411795783
Ge     11.109792899      7.403553798      0.186338260      0.420965718     -0.550794329      0.130714678
Ge      5.554579104      8.256692240      9.323221751     -0.198229366      0.379896728      0.085528074
Se      9.715707122      2.706906669     11.351251327     -0.403481231     -1.255011086     -0.329821584
Ge      2.960391094      4.353397696      3.352336158      0.494075574     -0.877942677     -0.362457992
Se      8.810534653      8.975190103      3.205887926      0.209873646      0.749409799     -0.087756251
Se      3.722788338      9.579903659     10.487393477     -0.191393267      0.659824043      0.768134548
Ge      8.267008025      4.678131369      0.415361571     -0.042159703     -0.050380628     -0.221849856
P       1.997659397     10.349675358      6.695448004      1.223926283     -1.204960463     -0.971926044
Ge      2.351511240      7.442503441     10.620493645     -0.193988572      0.061526062     -0.179955109
Ge      0.580703099      3.889129429     10.808516040      0.178923746     -0.958456224     -0.149257057
Se      5.182762094      4.490420301      8.241436881      0.166532464     -0.821099063      0.527511934
Se      7.288071631      5.694653746      5.434738867     -1.587100020     -0.385121947      0.708777814
Ge      3.801316009      6.437446374      2.039729418      0.001939450     -0.348971284      0.347153430