50
config_type=1000 Lattice="   11.36344   0.00000   0.00000   0.00000  11.36344   0.00000   0.00000   0.00000  11.36344"   Properties=species:S:1:pos:R:3:forces:R:3 energy=-11035.0370 pbc="T T T"
Se      7.178715511      1.740642420      6.679016274     -0.038404394      0.039117524      0.069244061
Se      5.555106851      1.468695034      0.027629199     -0.029121099     -0.121931641     -0.082038441
Se      0.649835178      0.500705340      9.414439983      0.017232233     -0.005550283      0.014227750
Se      1.718887613      1.941711030      0.813715167      0.025662512      0.022868824     -0.049383271
Se     10.626110791      2.353898307      6.426215904      0.045483990     -0.016246027      0.008634018
Se      4.238263900      5.681885189     11.117689547     -0.045722289      0.064614180      0.053260009
Se     10.546142855      6.331658524      9.410892895      0.088123503      0.006652498     -0.082818249
Se      2.821318043      5.846759535      5.276863588      0.029798880      0.073040327     -0.025602284
Se      5.881069302      7.234213610      3.050780981     -0.006760092     -0.041883551      0.060746314
Ge      9.325521890     10.910277523      4.664521606      0.075079996     -0.043399219      0.061881678
Se      0.220059445     11.153855265      3.629256671     -0.029245969     -0.025360456     -0.046571778
Ge     11.071117497      7.434915924      0.198328926      0.042246399     -0.011566630      0.030163602
Ge      5.566933044      8.254141030      9.340958350     -0.008487426      0.013584454     -0.071034309
Se      9.743620095      2.704951896     11.334769082     -0.082524463     -0.003418999     -0.052566915
Ge      2.905195855      4.303876747      3.337278903      0.003816746      0.043867813      0.005816457
Se      8.818595333      8.950353184      3.174886361     -0.043190568      0.075213538      0.082639225
Se      3.740878844      9.589384553     10.508216737     -0.040408679     -0.048168530      0.006452493
Ge      8.263660613      4.666525093      0.384504151     -0.039698801      0.021057453      0.130737556
P       2.022969695     10.387004484      6.741290985     -0.021511972     -0.035356912     -0.098872259
Ge      2.340905165      7.443784907     10.644366836     -0.019915976      0.056634164     -0.022292314
Ge      0.605672363      3.896295705     10.766506791     -0.066814706     -0.010997819      0.099445086
Se      5.208056246      4.495731704      8.239618029      0.029458048     -0.078352544      0.007360681
Se      7.315411756      5.674586369      5.445801739     -0.012430912     -0.029398907     -0.047173006
Ge      3.777515688      6.422195954      2.075979490      0.011842678     -0.013657583     -0.067505583
Se      7.605656978      8.414491441     10.820311162     -0.060534444     -0.018433157     -0.006006634
Se      9.690666081      9.806062021      6.958159577      0.033573289      0.072868189     -0.036545598
Ge      9.436967374      6.801081687      4.686445578     -0.032019739      0.052118543     -0.107609587
Ge      8.076690989     11.271854852      8.408825696      0.008776841      0.038994377     -0.033731501
Ge      8.119248643      6.120333113      9.668156439      0.022060228      0.020739672      0.008224206
Ge      4.192023976      1.281076053      2.282188904     -0.073901663     -0.028523306     -0.043303949
Se      2.992352552      2.202786830      5.033554455      0.002235038     -0.014979088      0.020391336
Se      0.430684965      5.291236296      1.646787074      0.041273953      0.001630282      0.041566220
Ge      7.713147933      4.429152912      7.561318733     -0.118828380      0.013106374      0.053541681
Se      5.364204560      3.463053308      3.076257095     -0.003161258      0.035993384      0.131522302
Ge      4.134478738      8.668499247      4.447566266     -0.000322133      0.034937700     -0.009372230
Se      5.566510567     10.904396462      3.926828702      0.025212896     -0.054930915      0.051009758
Ge      8.808990701      2.108096191      4.706125664     -0.019454277     -0.081112656      0.058497161
Ge     11.164165062      2.498728757      2.239354327     -0.019780177      0.091277467     -0.003047654
Ge      4.848997509      6.735679699      7.129948175     -0.093543378      0.015888630      0.041675802
Ge      3.119598993      0.107755142      8.696233250     -0.089561058     -0.023168487      0.034410380
Ge      2.608256272      4.443707411      7.355229912      0.078648916      0.007627808      0.056124054
P       0.461611001      9.932911124      8.210683111     -0.033249509      0.020072356      0.004832502
Ge      9.476914374      6.224111503      2.014670087     -0.017879601     -0.106040771     -0.060112776
Ge      1.054003327      0.904170612      5.609280378     -0.007806636      0.041501614      0.035828636
Ge      5.847573096      3.730833229      0.652958184      0.145406088      0.048778672      0.050727033
Ge      4.938405512      0.488729800      6.275629803      0.057841025     -0.061775157     -0.041538748
Ge      6.542682186      9.352110143      1.801596648      0.068507435     -0.046449559      0.021529112
Se      2.530534174      8.449656092      2.414867951     -0.008540980     -0.027055295      0.002094186
Se      6.248416692      9.846425407      7.428478347     -0.061738221      0.036525246      0.013663175
Se      2.419253610      6.921140585      8.143514348     -0.011485150      0.041555402      0.016073619
50
config_type=1000 Lattice="   11.36344   0.00000   0.00000   0.00000  11.36344   0.00000   0.00000   0.00000  11.36344"   Properties=species:S:1:pos:R:3:forces:R:3 energy=-11025.4739 pbc="T T T"
Se      7.755428881      1.344779542      5.948790284     -0.264262562     -0.288012009     -0.090622609
Se      5.964120895      1.903570482      0.236482882      0.166813388      0.139145369     -0.585659103
Se      1.137783047      0.493741936     11.187628646      0.113601837      0.446908300      0.088601948
Se      2.623947480      3.370072038      0.940198814     -0.320159091     -0.051465141      0.441709743
Se     10.948027358      1.876496312      7.169070927     -0.320253649      0.444258591     -0.598944560
Se      3.778251768      7.680412441      0.635693847      0.157498191     -0.492726292     -0.233171152
Se     10.413377365      7.046163353      9.149208656     -0.169095759      0.696593564      0.232739770
Se      2.569634650      4.318309209      6.936976203      0.005972980      0.630528327     -0.298732777
Se      4.727224397      6.227166431      3.921727306      0.146175312      0.258447387      0.348653191
Ge      8.728051761     10.445231715      3.694207148      0.762088753     -0.159555687      1.081035400
Se     11.105367565      0.587818178      3.531279928     -0.728010671      0.061590494     -1.116523043
Ge     10.624721469      8.312071738      0.384407137      0.113333192     -0.164209938     -0.698301680
Ge      4.908809877      8.971989473      8.729343004     -0.080357535      0.708237570      0.360366518
Se      9.206082959      3.217781421     10.965255476      0.072880741      0.865337375      0.036321501
Ge      1.565867688      3.621184512      4.325241301      0.254154205     -0.131621106      0.490902949
Se      8.737503347      7.841673719      2.818561135     -0.120997477      0.122830081      0.375588291
Se      4.811999116      0.249566180      9.594190502      0.227571428     -0.930858165     -0.436466105
Ge      8.033992786      5.674398184     11.062899171      0.425911055     -0.607595926     -0.216177001
P       1.620091110      9.867450011      8.430928638      0.571764871     -0.295593874     -1.515513842
Ge      2.878265357      9.849344985      1.647469239      0.583883180     -0.377419456      0.235721843
Ge     11.118137610      4.629127730      9.695383842      0.321007962     -0.229937269      0.352623747
Se      5.681705897      4.058410428      8.284658498      0.948169532      0.572260688     -0.042978167
Se      7.447562020      4.654908929      5.170160776      0.413833004      0.006727817     -0.021021681
Ge      2.531397689      6.164681937      2.763227059     -0.292182599      0.263987687     -0.792027425
Se      7.022660541      8.404035259     10.057663172     -0.112981203      0.169885490      0.619554921
Se     10.092014598      9.713494304      6.081142805     -0.520791218     -0.632736573     -0.798550189
Ge      9.438449124      6.206226388      4.675524457      0.136111726      0.182644921     -0.250236369
Ge      8.540001839     10.809305241      7.669892580     -0.053642571      0.681196908      0.023852112
Ge      8.043035827      7.203128452      8.257717392      0.067576074     -0.659144213     -0.400199397
Ge      4.369282243      1.959048099      2.237334822      0.177340026      0.186898178      0.020348246
Se      3.161397414      1.845337580      4.790308374     -0.447113515      0.671869110     -0.183620777
Se      0.336278247      5.953094837      0.656373442      0.233258410      0.100732043      0.229847523
Ge      8.123995694      3.733191290      7.529475110     -0.069957058     -0.304419620     -0.100359307
Se      6.811696532      3.489718071      1.965689360     -1.012889061      0.042824916      0.273397001
Ge      3.588439171      8.553491158      4.882168176      0.593058186     -0.132624464     -0.683295738
Se      5.086079397      9.697375976      3.081578807      0.164793429      0.518047472      0.611227868
Ge     10.297539952      2.672095663      4.628388895      0.249010164     -0.086937118      1.054195714
Ge      0.174316115      3.241556992      1.928355945      0.613808003     -0.382829067     -0.539710176
Ge      5.934102472      6.102362550      6.538919715     -0.208951541     -0.121123306      0.592947268
Ge      2.506119047      0.865608915      8.871892554     -0.742656142     -0.299404523      0.434031433
Ge      3.352684169      3.460927195      9.154033489      0.137036480     -0.841049163      0.592718201
P       0.939673480      9.827884948     10.293919694     -0.726352122     -0.155600747      0.944513141
Ge      9.571478543      5.133992730      1.882029588     -0.217134882     -0.104366948     -0.413729829
Ge      0.600131975      0.007955194      5.770715601      0.615427791      0.018160001      0.912733452
Ge      5.521525910      4.820719533     11.223656575     -0.294090885     -0.881481213      0.000869976
Ge      5.517542251      0.028457380      5.807050033     -0.171566031      0.347947603     -0.333870384
Ge      6.344412935      7.016498869      1.699875376     -0.978643335      0.374046426      0.394594932
Se      1.464270007      8.564200004      3.394173793     -0.250556730     -0.119339399      0.294466360
Se      6.599767420      9.340961917      6.682689692      0.117404660     -0.233842001     -0.014280850
Se      2.457902405      5.701671559      9.107517316     -0.425653077      0.534313587     -0.634887848
50
config_type=1000 Lattice="   11.36344   0.00000   0.00000   0.00000  11.36344   0.00000   0.00000   0.00000  11.36344"   Properties=species:S:1:pos:R:3:forces:R:3 energy=-11023.2723 pbc="T T T"
Se      7.131150993      0.462836445      5.342358469      0.495561296     -0.585323565      0.052587344
Se      5.597345490      1.784946226     11.212000429      0.479469974     -1.362950875     -0.456696627
Se      0.414581611     11.090527713     11.008113136      0.291806088     -0.626727069     -0.017087707
Se      2.265657204      2.520067891      1.804473337     -0.026039985      0.207882123     -0.228542065
Se      0.344946840      0.845793123      8.026844189     -1.666495116     -0.202596337     -0.149778079
Se      3.038515801      7.086891656      0.187224678      0.743618867      0.738023632     -0.693030483
Se     10.867903090      6.063338068      7.738214276     -0.985541015      0.614068965     -0.841165292
Se      4.341579643      4.726941344      6.592898151     -0.294855314      0.153095511     -0.753424889
Se      3.899767470      6.298736640      3.296320440      0.203793823      0.352535284      0.438963148
Ge      9.104103043     10.716103409      4.252474531      0.206355772      0.086174040     -0.894698184
Se     10.401697085      2.436673779      4.729851765      0.454470074     -0.306508186      0.474702089
Ge      9.995408424      8.551077037      8.313327190      0.704606373     -0.443669783      0.499314731
Ge      5.125403788     10.166209408      9.884336999     -0.726846283      1.074164753     -0.484953572
Se     10.314381787      3.238266467      1.171088224      0.721788724      0.331806221      0.594237705
Ge      0.331691887      6.314397995      4.983808506     -0.262338769     -0.556040826      0.181612295
Se      7.625710537      7.388299785      4.024056124      0.227875265      0.353568981     -0.476054545
Se      5.298943314      1.358953683      8.060815947     -0.552064578     -1.347044546      0.617189949
Ge      7.338325706      5.091699845     11.250401324     -0.401802351     -0.511813325     -0.142155510
P       2.973626982     11.025675973      8.629470272      1.053688213     -0.224093822      0.848714382
Ge      3.149588777      9.758147716      1.107280639      0.150884696      0.227489016     -0.183246365
Ge      0.466703613      5.625776362      9.945037529      0.903840993     -1.158862772      0.364180806
Se      7.382303956      4.046134182      8.775350475      0.001816156     -0.050888555      0.281447839
Se      7.249402045      4.135204945      4.804944269      0.172642459      0.985391582     -0.317818177
Ge      1.576551867      7.014035417      2.062255262     -0.744841019     -0.231495764      1.442612970
Se      7.326823889      7.152768323     10.049503309     -0.258785435      1.007556858     -0.031558926
Se     10.282885147      8.891976155      5.817604441     -0.226041461      0.603892575     -0.193183622
Ge      9.390747046      5.360060384      3.939243401     -1.165160495      0.620702356      1.007825887
Ge      8.355228106     10.320326940      7.015268868     -0.879042509      0.214315907      0.597243356
Ge      7.815117033      6.300251196      7.800209913      0.451809805     -0.536255117      0.206704818
Ge      3.917862496      1.081716630      2.865760305      0.190526451      0.369732514      0.292956804
Se      3.012540320      2.001556625      5.373581723     -0.484687278     -0.913089261      0.327193396
Se     10.407321784      6.965325087      0.126158899      0.649841663      1.581966823      0.347857416
Ge      8.145410130      2.722131724      6.532464572      0.621523099     -0.751754993      0.196183504
Se      6.690478310      2.271363725      2.018761120     -0.811544650     -0.102551685      0.030899195
Ge      4.240145494      8.686568171      4.278437703     -0.309193842     -0.163699874     -0.516178410
Se      5.649253994      9.788739546      2.321495467     -0.746815290     -0.685300196      0.269919599
Ge      0.839950364      2.804930272      6.624944119      0.083604222      1.063938118     -1.360153527
Ge      0.633649507      3.861456387      3.246562053     -0.271031765     -0.478456431     -0.889395021
Ge      5.978746598      6.775825744      5.874620231      0.125898362     -0.389073402     -0.538641870
Ge      1.819932115      1.592346003      9.981402837      0.311916906     -0.038623075      0.152038063
Ge      4.406215045      4.475850021      8.857265142      0.088114608      0.033594933      1.191551051
P       0.854804074     10.013615827      8.995421119     -0.235101468     -0.194467086      0.617658357
Ge      9.281711643      5.379042067      1.470230261     -0.206402999     -0.891250801     -0.623021969
Ge      2.030736949     11.042144118      6.135828885     -0.445603949      0.820478676     -0.800168758
Ge      5.176101879      3.925472092      0.744829913     -0.636885442      0.928920831      0.659937884
Ge      4.403436003     10.378837057      6.658078065      0.831782566      1.272541276     -0.036471046
Ge      5.479037773      7.276191203      1.557733940      0.428128387     -0.138231883      0.207477569
Se      1.834118041      9.543347520      3.353495955      0.647522203     -0.209969159     -0.409357515
Se      5.886867708      8.874755479      7.801042786      0.664234855     -0.156888537     -0.122852045
Se      2.715075681      6.674312839      8.805542934      0.098693809     -0.301415933     -0.100024534
50
config_type=1000 Lattice="   11.36344   0.00000   0.00000   0.00000  11.36344   0.00000   0.00000   0.00000  11.36344"   Properties=species:S:1:pos:R:3:forces:R:3 energy=-11024.5225 pbc="T T T"
Se      8.260582591     11.291886226      5.900491961     -0.578908482     -0.019329301     -0.694047371
Se      6.372648208      1.189030296      0.215000800     -0.174829596     -0.207616336     -1.384270912
Se      0.847603645      9.636332634     10.902006270     -1.907397121      0.214601178     -0.324030527
Se      2.035139424      2.963033801      0.705433315      0.000751337     -0.230062126      0.291547043
Se      1.191403751      2.700339124      7.511133111     -0.051140830     -0.271603811      0.123899791
Se      3.296821201      7.133322797      1.252188041     -0.082762595     -0.149833482     -1.628171062
Se      9.847404279      6.241183621      7.270534342      0.066530490     -2.227097100     -0.149746109
Se      4.621845870      5.953150439      7.839238309     -0.830885586     -0.519602137      0.232526306
Se      3.121100562      7.295535875      4.424247655     -0.004357962     -0.428658466      0.486628061
Ge      9.411571983      9.712230834      3.912143382      0.216988463      0.240014708      0.089900328
Se     10.556615334      1.026154286      3.894489844      0.674898502      0.287583639     -0.623364287
Ge     10.392061150      8.311044484      8.179045715     -0.509352093      1.825430291      0.572577619
Ge      4.348362780      9.745031774      9.351887403      0.703682397     -0.067700583     -0.879129620
Se      9.977208148      2.973798659      0.798568769     -0.044685192      0.918608115      0.407526707
Ge      0.733034641      6.782281671      5.833745183     -0.300801497     -0.086902713     -1.026433104
Se      7.784133450      7.705922765      4.235784408      0.971860183     -0.555607432     -0.365231393
Se      5.605962722      0.418719052      8.493619500      0.274988167      0.562388745      0.274214532
Ge      6.798669288      4.716662042      0.270191695      0.070871030     -0.540211010     -0.257071106
P       2.677763268     10.858232407      7.990228604     -0.621550405     -1.418669238      0.490252732
Ge      2.957513984      9.945691792      0.388446171      1.378659369      0.070245997      0.896284091
Ge     10.521625142      4.435171156      9.715376881     -1.120959552      0.066933668      0.704546682
Se      7.404311173      4.008618852      9.306859086      0.769293427      1.062331028      0.341648784
Se      8.464483220      3.910668236      4.686390010     -0.917644129      1.419660710     -1.609674621
Ge      1.357607936      7.055084856      2.634865514     -1.046765310     -0.161470091      0.477934231
Se      5.876651941      6.947640634     11.110095410      0.088157250      0.543032448      0.114321766
Se     11.082792298      9.174804397      5.842001939      0.505090329      0.410896302     -0.192257213
Ge     10.011879044      5.976487563      3.835084369      0.169229735      0.254343614      0.345448179
Ge      7.968872037     10.244783316      8.096520102      0.198435626     -0.151067555      0.974893216
Ge      7.893284814      6.990892752      9.498669547      0.234609078     -0.802315176     -0.736068371
Ge      3.248180574      1.212707936      1.995200148     -0.635149583     -1.059674149     -0.125114621
Se      2.981638903      2.299958197      4.180260892      0.019851478     -0.276383405      0.983203270
Se     10.005718356      6.715211933     10.908339884     -0.133423713     -0.502820959      0.270091896
Ge      9.624998052      2.200131872      5.776742593      0.975124931     -0.922110370      1.917030258
Se      5.572613264      2.012543295      2.223229571      0.003998935      0.693751801      1.412698978
Ge      2.823691876      9.723133191      4.200157640     -0.021269914      0.793270554      0.085906129
Se      5.337831213     10.040066457      3.207792257     -0.401344810     -0.545264353     -0.530973616
Ge      2.185453058      4.296577408      5.954506155     -0.025063490      0.245516963     -0.023352885
Ge      0.402584841      3.094331304      2.841234502     -0.196890900      0.341568644     -0.643686812
Ge      7.586988451      5.978633536      6.000284881     -0.707367923      0.040676090      0.928625049
Ge      3.403308433      1.397527289      9.171070313     -0.518038026      0.980452019      0.302932424
Ge      3.617592118      5.457501471     10.386948147      0.202825560      0.549721907     -0.564679303
P       0.518512822     10.083007973      8.650723617      1.072383663      0.564409179      0.031111117
Ge      8.784562059      4.975924823      1.875746351      0.884409600     -0.462022150     -1.128105332
Ge      1.670068400      0.604103071      6.039604810     -0.256782312      0.422400025     -1.183534560
Ge      4.799609754      3.176228849      0.068645971      0.159820307     -0.139371954      0.006707477
Ge      5.510335945     11.124860115      5.724925770      0.333800693     -0.593939190      0.438515050
Ge      5.492396037      7.477753947      2.558633808     -0.216275025      0.356698686      0.601792057
Se      0.670440407      9.569229076      2.634667592      1.092127969     -0.122950711     -0.368018017
Se      6.054157475      8.906579324      7.234245614     -0.334474880     -0.551508276     -0.480382845
Se      2.173744667      6.220743374      7.783103438      0.396767919      0.075411220      1.415736058
50
config_type=1000 Lattice="   11.36344   0.00000   0.00000   0.00000  11.36344   0.00000   0.00000   0.00000  11.36344"   Properties=species:S:1:pos:R:3:forces:R:3 energy=-11024.2669 pbc="T T T"
Se      8.142000245     10.672977825      6.521007775     -0.840905069      0.481652496     -2.342342087
Se      6.690197595      1.124461371     11.072821436     -0.007063512     -0.830519206     -1.229614434
Se      0.807242979      9.631012630     10.589015561     -0.790191443      0.340966153     -0.696136647
Se      3.127418357      1.900938477      1.491157315      0.369076301      0.532285822      0.150911844
Se      1.099236047      2.531486507      7.468023379      0.141839067      0.476063312      0.106061306
Se      3.057071229      7.402500115      0.240843575      0.161689307     -0.581305596      1.116606586
Se      9.696181935      5.113368414      7.219159779      0.198675504     -0.196063818     -0.830678211
Se      4.709826470      5.023893092      8.356093611     -0.784313861      0.207358767      0.832882149
Se      3.303739807      6.462564864      4.241648618     -1.141053956     -0.281327920      0.480556003
Ge      9.458364280      9.469629176      4.234372036      0.034701909      0.232005446      0.738579890
Se      0.169475010      2.929148961      3.977131558      0.132267612      0.024595221      0.350746174
Ge      9.207885684      9.998954466      8.421192179      2.192060175     -0.340398807      0.855090443
Ge      3.418496228      9.268034272      8.564782745     -0.207629730      0.183263554      0.562678490
Se     10.406742620      2.951238809      0.566221046      0.696753329     -0.625910985     -0.401680504
Ge      0.049130158      5.229779311      5.062206722     -0.623258207      0.241982834     -0.279388136
Se      7.823407196      7.291200910      4.062080588     -0.249204015      0.435524936      0.635742822
Se      4.839431944      0.369608710      8.408783184     -0.576729283     -0.686301190      0.409465951
Ge      5.595236309      5.885928596     10.722543027      0.174716333     -0.955610760     -0.277508692
P       1.720262426     10.781173704      7.442910172     -0.295513521     -0.475981435     -0.789740728
Ge      2.851994865     10.019328070      0.520167531     -0.116878934      0.337047626      0.788148222
Ge      0.148929720      4.985825408      9.340945007     -0.433734203     -0.522616979      0.423092502
Se      7.762041601      5.071070877      9.514864405     -0.502980663     -0.809093550      0.236420619
Se      7.836473469      3.760161277      4.415341153     -0.335893123      0.261182280     -0.335752544
Ge      1.483632807      6.521881124      2.411767771      0.388844796      1.152820357     -0.096255269
Se      6.682526077      8.101097547     10.909876665      0.478401925      0.328884896      0.712584260
Se      0.071559889      9.274437933      6.175003077      0.002229159      0.105143769      0.328037163
Ge      9.253620464      5.574941376      3.109683830      0.766358715     -0.664006550      1.089771285
Ge      6.851959331      9.414537324      8.984879007     -1.576634609      0.323559231     -0.876074325
Ge      8.834476324      7.229748511      9.361020331     -0.040284516      0.258726816      0.631787379
Ge      4.727342324      1.449638319      3.733334214     -0.083913658     -0.375654708     -0.928039014
Se      4.039110238      3.075306254      5.465276417      0.503841348     -0.586362232     -0.153568231
Se     10.336000856      6.735284380      0.101379626      0.115613831     -0.269895527     -0.520114965
Ge      9.494585970      2.732674187      5.985654124      0.493880936      0.029243420     -0.194291067
Se      7.474037272      1.553684586      1.850512830     -0.104481077      0.443282687      1.013084659
Ge      2.198816275      9.680397364      4.344051468      0.399280248      0.088534339      0.186437623
Se      4.849591191      9.726069017      3.315225932     -0.245101352     -0.880758156     -0.010008897
Ge      2.213909324      4.850783965      6.537802448      0.455428332     -0.118811599      0.365812013
Ge      0.923871246      4.068737633      1.632658221      0.268337276     -1.614806186      0.125927373
Ge      7.279501167      5.522656042      6.311670351      0.101922326      0.163361405     -0.114602138
Ge      2.500862221      1.537344649      9.555051685      0.256537821      0.315249470     -0.309520447
Ge      2.747568187      5.479857943     10.050288518     -0.120301925     -0.356439951     -1.133755035
P       0.543324648      0.093021534      9.180402009      0.268936882     -0.608527469     -0.071866569
Ge      8.864458651      4.732803233      0.761284603     -0.757711743      0.720152158     -0.658907490
Ge      2.218504955      1.227131097      5.331666213     -0.554256234      0.530888963      0.322373884
Ge      5.756013275      3.071176173      0.704277152     -0.689995512      0.366045450      0.374178576
Ge      5.255101968     10.433590847      6.178592392      0.621794042      0.210021458     -0.954741629
Ge      5.074001732      7.054971416      2.814086865      0.777000129      1.531762396     -0.913974937
Se      0.856781870      9.586590736      2.319436278      0.603698994     -0.130488731      0.169730036
Se      5.170591021      8.046664156      7.042639796      0.262997818      0.978003113      0.363974062
Se      1.300716153      6.750359462      8.162012413      0.410591866      0.465308453      0.377525967
50
config_type=1000 Lattice="   11.36344   0.00000   0.00000   0.00000  11.36344   0.00000   0.00000   0.00000  11.36344"   Properties=species:S:1:pos:R:3:forces:R:3 energy=-11022.1626 pbc="T T T"
Se      6.980475066      1.018213148      7.070944412      0.398122195     -0.696853345     -0.375357116
Se      6.406404702      0.670197498     11.290075282      0.892533655     -1.362228349     -0.109768534
Se      1.323906362      9.696085683     11.218622742     -0.360057341      0.240487688      0.419987612
Se      2.494478654      1.031125884      1.510537332      0.069552353      0.102974630     -0.273678542
Se      0.834468058      3.140113361      7.569792944      0.385259706      0.073050067      0.060280751
Se      3.551262448      6.729914121      0.913480116      0.554845377     -0.453164275      0.248448874
Se      8.770801678      4.781019838      7.740266226     -0.404173551      0.281621499     -0.255475673
Se      4.446629118      4.412761158      7.597743598     -0.391307453      0.822374031     -0.084238054
Se      4.556725054      7.442684004      3.987307942      0.162611467      0.429039351     -0.080126476
Ge     10.546453770      9.266028840      2.975950451     -0.036513192     -0.068939909      0.679782202
Se     11.338532783      2.150368283      4.199461102      0.477985185      0.115983847      0.344170060
Ge      8.427842209     10.329168112      7.191662566     -0.186909670     -0.078655031      0.243824963
Ge      2.912723367      8.619199281      9.615039000      0.438308571     -1.167043332      0.796907908
Se     10.979315707      2.439677468      1.056373164     -0.083017131     -1.095368894     -0.691846434
Ge      0.649058587      4.536515821      5.339881775     -0.472374402     -0.692367275     -0.064423836
Se      8.858708366      7.293691241      4.365576331     -0.298248818      1.047922458     -0.192718622
Se      3.809142837      0.644877600      7.744061981     -0.801537539     -0.626897699      0.721612777
Ge      5.600250986      7.215282746      9.702504549     -0.075326673     -0.430061689      0.403144767
P       2.095747261     10.338848009      8.335238829     -0.091456171      2.609876427     -1.148325054
Ge      4.323009134      9.227744635      2.045177343     -0.580123825      0.318693034     -0.159769823
Ge     10.263401219      3.932483328      9.551947149     -0.001086752     -0.773109541     -0.132211864
Se      6.927601292      4.930272499      9.881400212      0.380132453      1.221585441     -0.011581380
Se      7.715087846      3.893890664      3.948364187      0.005415830     -0.046527279     -0.169245271
Ge      2.466230900      6.063692354      3.272812336      0.058917917      0.098337754     -0.766742255