   300
 config_type=liqu Lattice="   20.31669   0.00000   0.00000   0.00000  20.31669   0.00000   0.00000   0.00000  20.31669"  Properties=species:S:1:pos:R:3:forces:R:3 energy=-40559.9292 pbc="T T T"
Ge    1.75135   0.21564  19.83308  -1.29478  -0.19322   0.96385
Ge    7.24768   3.84623  11.82125   0.56609   0.48340   0.11818
Ge    9.86854  14.32423   9.09232  -0.02423  -0.05996   0.05174
Ge   19.76485   0.07856  18.10434   0.15659  -0.39090   0.18565
Ge   10.33011  20.17395   2.65153  -0.08113   0.17914  -0.08180
Ge    8.00150   2.44910   8.80827  -0.07548   0.27035   1.00093
Ge   12.47151   3.62291  16.73030  -0.02087   0.81143  -0.33234
Ge    8.78951  12.33166  18.83278   1.36959   1.20471   0.50157
Ge    4.79891   3.21629  15.18335  -1.12957  -0.08137  -0.06660
Sb   15.98849   1.19841  17.88989  -0.95532   0.34149   0.73751
Sb    1.67434   5.54560  14.60383   0.21797  -0.60585  -0.26024
Ge   20.20352  17.29355  17.88878  -0.58062   0.93437   1.27011
Ge   12.28930  13.92010   3.73756  -0.07045   0.43907  -0.08046
Ge   10.30860  18.65311   9.77495   0.77971  -0.04683  -0.20473
Ge    5.43276   4.87711  20.12670   0.05084  -0.45291  -0.16233
Sb   16.85181   6.08546   1.56742   1.23491  -0.11993   0.10781
Sb    3.69622   6.33717   3.36751   0.19921  -0.46009  -0.06045
Sb   11.43319   5.47896   2.70383  -0.68015  -0.96348  -0.78792
Ge   10.19198   2.28717   7.67411   0.97634  -0.10523  -0.27199
Ge    7.02705  11.82994  13.50229  -0.03678  -0.08316  -0.25882
Ge   11.35629   2.50693  19.00912   0.44985   0.01570   0.64321
Ge   13.96067   7.84362   9.38749   0.21774  -0.24650   0.01918
Ge   14.62347  12.76731  11.35803   0.42354  -0.07855  -0.27836
Ge   18.71987   6.54415  14.03142   0.13748  -0.20166  -0.42836
Sb    1.29791  12.43737   8.37734  -0.64591   0.28316  -0.41563
Ge   15.76800   8.94610   7.42086  -0.20009  -0.03752   0.03800
Sb   16.17298   1.63083  13.70704   0.54678  -0.01265   1.70456
Ge   17.82619   8.39464   9.63239   0.46364  -0.20490  -0.47111
Ge   12.97905   1.16904  17.09245   0.46646   0.13871  -0.26195
Sb   17.87303  17.96487  15.28635  -0.15880   0.52843  -0.17027
Ge   19.80395  10.26285   6.74997   0.11007   0.17486  -0.15510
Ge   11.76775   3.47916  10.17695   0.67839  -0.47719   0.02932
Ge    3.76839  14.68448  20.02429   0.21009   0.39523  -0.11079
Ge   10.04324  11.30133   0.80932   0.48480   0.03420  -0.31861
Sb   12.08602  15.50135   6.29419  -0.37462   0.56290  -0.11320
Te   10.56601   8.61442   0.42848   0.69625  -0.38736   0.02183
Sb   11.08731   9.39390   9.02531  -0.40355  -0.02525   0.60561
Sb    2.84997   1.45804  17.97431   0.91651   1.34750  -1.03070
Ge   18.74653   1.52229   9.19347   1.40048  -0.54632  -0.70143
Ge   13.60496  10.26855   7.96283  -0.18434   0.42618   0.30332
Ge    7.63640  12.31709  16.17162   0.04390   0.18894  -1.92080
Ge   15.85970   8.74029  16.75065   0.87213  -0.84076   1.06263
Ge    1.68634   4.32148  18.61283  -0.04071  -0.37222   0.26334
Ge    2.97034  10.31878   8.34197   0.10152  -0.44705   0.15820
Ge   16.81195  19.25856  10.18845  -0.10647  -0.38736   0.63963
Ge   15.35787  16.57572   8.85258  -0.40391   0.07138   0.81409
Ge   17.08900   8.25605  20.02130  -1.24251  -0.85152   0.02536
Ge    8.27685   7.01359   9.03763   0.28685   0.39884   0.13791
Ge    2.52967  19.63758  12.93460  -0.75151  -0.13309  -0.67143
Sb   15.78706  19.37446   7.82614  -0.21313   0.72542  -0.51489
Sb   10.18961   5.37606  14.67435   0.68910   0.26319  -1.03280
Ge    7.49609  10.95775   3.73202  -0.74981  -0.02742   0.40890
Sb   19.15438  16.85688   4.53654   0.04225   0.49226   0.56913
Ge   16.47874   4.13437  19.66281  -1.01749   0.80819  -0.49977
Sb   11.81130  13.42898  11.21017  -0.08538   0.14333  -0.07656
Ge    4.98634   7.09887  17.76327   0.90569   1.18722   0.40946
Ge   17.99480  11.91696   3.93004   0.22042  -0.12747   0.06883
Ge    5.41942  15.60558  17.60953  -0.51343   0.31464  -0.04271
Ge   12.58356  16.72417  14.84039   0.27851  -0.04943  -0.50592
Ge   17.94712   1.16106  11.44087   0.89196  -0.14835   0.94481
Ge    4.01751   0.19530   1.71944  -0.20420  -0.12473   0.26132
Sb    8.85737  17.98922   4.18348  -0.09036   0.14615  -0.16574
Ge   16.42384   6.17873   5.64827  -1.08778  -3.76379   0.25157
Ge   12.58764  18.11785   3.73047  -1.67776  -0.21796  -0.59021
Ge    6.12279  14.56671   2.45762  -0.19000   1.19707   1.91002
Ge    7.68165   7.88150  17.03196  -2.18591   0.45486   0.59090
Ge   14.76417  15.79408   4.13128   0.11082  -2.22244   0.29414
Sb    1.23731  10.88402  10.93629  -0.48575   0.24023   0.84603
Ge   15.11956  13.24916   2.77936  -0.02534   0.02788   0.12466
Ge    7.16670   5.78343   2.69439  -0.82455   1.27388  -0.51725
Ge    8.88243  10.02203  18.04022   0.52832  -1.40088   0.31475
Ge   10.93508  18.28551  15.90937  -1.62888   0.27699   0.32852
Ge    8.23842  13.38674  11.66995   0.69206  -0.55584  -0.24761
Ge   17.80601   0.47078  16.19122   0.86556  -0.43274  -0.66995
Ge    0.50394   6.24840  11.62792  -0.58933  -0.30114   0.86525
Ge    0.25920   8.72647  12.50645  -0.49360   0.48120  -0.02328
Ge    1.82120  18.69614   1.19048   0.51683   0.59662   1.12532
Ge   14.65593  17.16081   2.22442   0.39487   1.12454   0.18795
Sb   18.11899  15.96666   9.21437   0.84458  -0.72686   2.76277
Ge   13.06430  18.33848   6.43068  -1.73876   0.50275   1.22452
Ge    0.24509  16.83571   7.90436  -0.31587   1.03092   0.34796
Ge    5.96108  13.54132   0.36994  -0.35499  -0.72566  -1.57181
Ge    1.59954  15.52882   6.33974   0.19410  -1.02570  -0.45250
Ge   17.30457  11.69683  16.73080   0.43217  -0.00597   0.09403
Ge    8.95308   8.27471   3.06069  -0.32402  -1.24788  -0.34727
Sb   12.97170   1.07811   4.37188  -0.75786  -0.55573   1.20887
Ge   14.29832   6.52285   1.48626   0.02753  -1.18815  -0.32608
Ge   18.31359  11.59185  10.87524   0.62735  -0.44001   0.58958
Sb   13.42173   3.94765   0.88540  -0.12199  -0.50185  -0.30946
Sb   18.59006   4.99190   6.65740   0.27537  -0.95362   0.42717
Sb   10.99522  18.41959  13.12151   0.16726  -0.42051  -0.75224
Ge   14.36658  12.17555  13.98500   0.53883   1.30476  -0.25397
Ge    9.47359   2.85923   0.63119  -0.14971  -0.33070   0.31264
Ge    5.75991   6.12912  10.81103   0.42075   0.07654   0.10013
Ge   17.25575  10.65631   8.75723   0.10379   0.33434  -0.09348
Ge   12.15050  13.35839   7.85731   0.22068  -0.50155   0.57149
Ge   15.97651  16.58107   0.29590   0.42644  -0.59878  -0.80510
Ge    4.86814  18.17634   9.29093   0.05581   0.71264  -0.28849
Sb   11.90675   3.41512  13.06000  -1.03171  -0.66145  -0.73887
Sb    3.74950   0.54672   4.83271  -0.50574  -0.03512   0.00417
Ge   17.32695  17.45082  18.64308   0.42759   0.01644  -0.11158
Ge   14.11904  13.15609   5.66143   0.09668  -0.28374  -0.11998
Ge    4.29897   0.42715  14.14146   0.68740   0.93338   0.43905
Ge   12.89037   0.84727   1.73465  -0.14777  -0.06341  -1.30296
Ge   14.16652  15.27632  10.88506   0.59419   0.12175   0.53665
Ge    8.67989   0.51444  19.58907  -0.37415  -0.09736   0.05963
Te   19.66848  10.13300   0.54388   0.55605   0.37275   0.34257
Te   15.50250  16.34273  14.09509   0.20507   0.31120  -0.35185
Te    4.72133   4.87790   7.43159  -0.16848  -0.67857   0.17931
Te    4.34406  12.86178  15.39516  -0.38146   0.11994  -0.58154
Te   18.98766   4.05812  15.71609   0.34763  -0.50296  -0.16893
Te    8.56653   9.81813  15.29875   0.34761   0.31547  -1.03336
Te   19.95125  13.16955  17.55690  -0.27401  -0.01632   0.57978
Te    7.65888  15.29749  13.65060  -0.11924  -0.00241  -0.39707
Te    5.84467   8.18123   8.57335  -0.55628  -1.43516  -1.38838
Te    6.27336  18.48586   2.51986  -0.20847   0.80215   0.41127
Ge   16.56633   4.98637  13.81274  -0.46008   0.97866   1.43853
Te    3.59250   6.87672   0.39184  -0.45074   0.22116   0.08375
Te    7.04513   8.76852   0.44591  -0.55355  -1.22574   0.25520
Te    8.26880  18.66137  11.68479  -0.12169  -0.17105   1.32863
Ge    1.97507   2.93469   3.62245   1.27051  -2.93524  -1.14332
Te   14.39238  11.19103  16.85408  -0.68711   0.83161   1.36494
Ge    2.64280  18.95350  10.31231  -0.77886   0.16918   0.08879
Te   13.99576   5.64623  12.10133   0.70027   0.06773   0.41931
Te    5.18059   3.52712   4.11725  -0.19601   0.04857  -0.24110
Te    2.16175  14.82290  11.53918  -1.89038  -4.82971  -0.71221
Te    3.33440  16.16486   4.41312   0.01922  -0.41420  -0.60314
Ge   16.57672  19.47588   2.77189   0.00852   0.18371  -0.73902
Te    0.18106  20.02944   7.93428   0.14455  -0.31874  -0.49336
Te    7.94486   9.43295   5.96584   0.88120   0.51729   0.87231
Te    5.24054  16.20781  11.16606   1.48091  -0.19855   0.30896
Te    0.17701   4.31575   1.45912  -0.61622  -1.51718   0.65432
Te    1.63404  13.16547   0.57416  -0.35029  -0.40166   0.33835
Ge   13.19262  10.96830   3.78409   0.39353  -0.06070  -0.04187
Te    8.02071  17.94534  17.89115   0.07326  -0.10907   0.17704
Te    8.43181  11.43806   9.03250   0.41045   0.24480   0.24988
Te   18.68887  18.52232   0.85543  -0.44236   0.92857   0.05026
Te   11.24320   8.17944  14.23033   0.23163   0.33493  -0.43048
Te    6.54829  13.90408   9.64462  -0.09688   0.15025  -0.55063
Te   20.27878  16.37329  12.59234  -0.99697   0.81581  -0.15193
Te   10.04946  13.56842  16.07288  -0.09725   0.42757  -0.55473
Ge    9.94642  15.57986   3.14267   0.89309  -0.15417  -0.10227
Ge   17.82872   5.48243  10.01075   0.76467  -0.49071   0.34903
Te    1.61475  10.89193   4.51924   0.17674  -0.13214   0.37894
Ge    7.77937  15.93151   0.49436  -0.19569   0.50712   1.05582
Te   11.33680  16.30947  18.17031   0.11988  -0.28360   0.73703
Te    3.29461  12.27121  18.32688   0.23737  -0.46851  -0.24648
Te    9.11464  16.31407   7.00584   0.43190  -0.65264   0.08521
Te   13.80533  14.59086  15.75536   0.09884  -0.59793   0.77936
Te   14.95948   0.37696  11.64456  -1.61637  -0.67360  -0.99752
Te    6.12413   6.67979  14.80989   0.48299  -0.60290  -0.89958
Te    7.37107   0.94727  16.71842  -0.06336  -0.05599   0.75882
Ge    6.46285   2.09102  13.51481  -0.22036  -1.02828  -0.50195
Te    6.49253  17.92621   6.26837  -0.45008   0.13868  -0.73216
Te   11.71387   9.86008   5.92533  -0.13745   0.05474  -0.09457
Ge   16.88601  11.26565   6.30104  -0.01608  -0.06491  -0.49083
Te   14.58395   2.79340   7.28457   0.41033  -0.34014   0.13488
Te    8.23019   4.76843   6.26379   0.45291   0.14467   0.14732
Te    3.46447   3.02478   0.94670   0.06390  -0.13936  -0.08434
Te   17.81727  13.59016  12.76880  -0.01102  -0.41903   0.28377
Ge   14.91294   3.38515  10.57875  -0.18131  -0.21755  -0.03011
Te    0.30649  16.28358   1.00205   0.33930  -0.54572   0.34350
Ge    6.25737  11.96719  18.06042  -1.81827  -0.04595   1.06499
Te    4.70224  12.45359  12.27725  -0.29323  -0.10629   0.20965
Te    3.05433   8.99879  18.38372  -0.46839   0.40091   0.13636
Te   13.49826  10.13267  12.47411  -1.23576  -0.50918  -1.67552
Ge   16.34681   4.12992  16.53577  -0.55166  -0.11940  -0.11957
Te    8.53600  13.25922   2.46343   0.55663   0.95572   0.22442
Te   19.42226   7.87937   3.85919   0.52402  -0.23356  -0.08639
Te   17.56184  13.98796   6.64177  -0.11170  -0.51548  -0.03000
Te   13.83187   6.72294  16.58824  -0.18801  -0.39331   0.19537
Te    0.23514  13.05153  13.94245  -0.34215   0.18138  -0.32766
Te    1.08614  16.40536  15.81551  -0.24908  -0.01180  -1.84197
Te    5.39092   9.23263   3.12741  -0.67696   0.32545  -0.36236
Te    8.31578   8.23421  11.53535   0.25911   0.03020   0.36558
Te    8.37470   6.06664  20.04559   0.24275  -0.34340   0.10862
Te   18.65005   2.06092   4.70697   0.27481  -0.51717  -0.22119
Ge   12.26066   5.87095  18.81921   0.21239   0.12740  -0.11955
Ge    3.58838  14.07773   8.21128   0.14068  -0.31619  -0.19066
Ge   10.39731   1.15159  16.03237   0.40099   0.09684   1.29984
Ge    1.42337   3.16039   6.26210  -0.11761  -0.38497   0.90790
Ge    5.08187  18.76719  18.40779   0.16868  -0.24864   0.08044
Ge   10.84353   5.56552   6.98491  -0.26128   0.07509   0.32330
Ge   17.62289  14.59617   3.33091  -0.14840   0.81030   1.04098
Ge    5.66951   3.56930   9.81279  -0.23065   0.00115  -0.15525
Ge    2.32737  19.09098  17.40998  -0.01384   0.09081  -0.65125
Te    0.65453  10.21628  15.06515  -0.10255  -0.01405   0.06616
Ge    4.14391   8.54496  15.73141  -0.39588   0.32043  -0.06461
Ge    2.19015   2.03132  11.24194  -0.81451   0.22906  -0.46754
Ge   14.79909   8.53468   3.75067   0.26877   0.83539   0.07434
Ge   17.85205   8.55632  12.15205   0.01226   0.13054   0.37271
Ge   16.86282  10.39930  13.70580   0.68698   0.50438   0.15344
Ge   16.33370   6.44932   8.30860  -0.99768   0.46118  -0.01128
Ge   11.56218  12.67220  17.93331   0.61125  -0.44089   1.02897
Ge   11.84080   4.03240   5.16049   0.22501  -0.48460  -0.34900
Ge    2.40762  14.97211  17.70169   0.19439  -0.13577   0.20199
Ge    7.34590  19.60932  14.30080   0.31464   0.61026  -0.42550
Ge   10.78240   7.17956   4.87975  -0.22982   0.76021   0.62237
Ge   15.06660  16.97178   6.34297   0.77001  -1.26665   0.19677
Ge   16.63692   2.91583   1.55531  -0.38594   0.43600   1.60107
Ge    0.70020   2.09835  13.24275  -0.37372   1.14427  -0.40379
Ge    1.75172   8.25011  10.06469   0.18008   0.48839  -0.69347
Ge   18.42001   8.65652  15.47757  -0.12331   0.40860   0.13729
Ge   10.71127  17.38578   1.16402  -1.37497  -0.57583   0.04862
Ge   14.30962   8.52212  19.33696   0.00173  -0.20018   0.04491
Ge    3.99719  15.64290  15.12222   0.24688  -0.02321   0.20865
Ge    4.03741   4.94634  17.64838  -0.37506  -1.38983  -0.15389
Ge    5.24058  18.94813  15.58757  -1.09003   0.23790   0.71962
Ge   14.74482   4.70300   4.11294   0.62266  -0.90605  -0.31699
Ge    0.44817   3.37457   9.30877   0.14740  -0.64968   0.06120
Ge   12.80662  18.91392  17.28516   0.27577  -0.67898   1.04210
Ge    8.37369   3.47367  14.45878   0.04226  -0.07736  -0.10905
Ge   17.67912  13.21653   1.31097  -0.08400  -0.78879  -0.53580
Ge   17.40873   9.42779   2.86747   0.16392   0.27125   0.30328
Ge   19.24168  18.56684  10.31498   0.85903  -0.74488  -0.23828
Ge    1.48141   5.70434   9.16396   0.27450  -0.53462  -0.29531
Ge   14.20088   3.35199  14.32139   0.37203   0.54455   1.03727
Ge   14.60914   9.59781  14.75065  -0.04906  -1.18220  -0.55712
Ge   17.01150   8.23565   5.20636   1.12002   3.62781  -0.26839
Ge   14.68830  19.42235  15.85193   1.07126   0.54237  -0.36540
Ge   17.49147  19.41159   5.28914   0.71080   0.26624  -0.05327
Ge    5.66931  10.70081   8.96701  -0.33500   1.33204   0.28777
Ge   17.51133  16.66335   6.96246   0.33315   1.37723  -3.06760
Ge   13.26959   6.65665   4.41033  -0.00698   0.82960   0.20332
Ge    4.55201   1.40321  11.02656   0.68498  -0.28108  -0.20553
Ge    2.59466  17.45834  19.44051   0.31374  -0.32330  -0.34296
Ge    7.09811   7.08875   5.33333  -1.01799  -0.57350  -0.90316
Ge   16.71184  10.60800   0.79179  -0.07976   0.66339  -0.30329
Ge   18.77240   9.18145  18.54042  -0.21964   1.52236  -0.53650
Ge    7.79322   3.61077  19.05875  -0.65412  -0.53861   0.64381
Sb    6.55427   1.87424   6.68641  -0.43222  -0.44594  -0.65874
Sb   12.99843  18.34485   0.49569   0.69776   0.97818  -0.82084
Ge   15.33681   1.83277   3.56685   1.44646   0.22614   0.04045
Ge    1.04697   7.70617  15.99421   1.93059   0.41477  -1.18585
Ge    7.71038  15.02123  18.57429   0.31820  -0.57899  -1.00995
Ge   18.57090  15.25627  16.30355   0.22115  -0.18439   0.04775
Ge    3.14001   5.74662  11.23937   0.05453  -0.33259  -1.70769
Ge    9.94729  10.53500   3.28709   0.91099   0.56419   0.23617
Ge    6.00884   9.16855  13.17532   0.34968   0.23423  -0.30374
Sb    0.30929   6.73911   0.45848   0.27858   1.72567  -0.56903
Ge    3.75961   3.84742  12.65188   0.18151  -1.08838   0.53624
Sb   10.36124  19.47339   6.17188   0.17124   0.52418   0.27923
Ge   14.75136  18.93960   4.59605   0.97428   1.07750  -0.37573
Sb    4.38541   0.73291   8.18217  -0.30285   0.01527  -0.31255
Ge   11.36509   0.57494  12.03873   0.28172   0.52323   0.03900
Ge   19.91287   7.27351  17.66165  -0.65476  -0.41053   1.30231
Ge   14.34269  11.08599  20.15237  -0.23571  -0.01810  -0.10462
Ge   17.03614   6.32697  17.96915  -1.37330   0.85997  -0.28113
Ge   10.16713  10.61264  11.82986  -0.02405  -0.21999  -0.41690
Ge    3.71493   6.95831  13.18742  -0.21755   0.61514   1.62874
Ge   19.56444   1.30318   1.34867   1.22616  -1.22971   1.37491
Sb    0.64311   6.99132   6.98588  -0.02362   0.71699  -0.47201
Ge    0.32971  14.10143   2.79172  -0.51849  -0.02664   0.61277
Ge    5.75737   0.49157  20.08994   0.21181  -0.13282  -0.14297
Ge    8.76506   4.12914   3.47299   1.06090  -0.32965   0.27362
Ge    7.05606   0.64285  10.42258  -0.15087  -0.15726   0.05228
Ge   11.08925  14.34873   0.22988   0.21119   0.29842  -0.27757
Sb   12.03567   0.57995   9.20501  -0.36068   0.32783  -0.04766
Ge    2.91662  16.85986  12.41606   1.02039   3.56553   2.43733
Ge   13.97032   5.36264   6.75878  -0.05160   0.52292   0.81504
Ge    3.08964  13.10894   5.84249   0.03710  -0.03222  -0.57101
Ge   19.04799   5.08962  18.37135   1.57814  -1.54287   0.32774
Ge    0.73696   0.08656   4.81343  -0.12445   0.34769   0.39725
Sb   10.55573  15.03878  13.62067   0.56446   0.27620  -0.64104
Ge   12.14853  16.33470   9.88170  -0.85205  -0.18926  -0.46785
Ge    6.66993  16.89523  15.49755  -0.04955  -0.13283   0.79781
Ge    9.85687   4.96079   9.50724   0.11456  -0.38542   0.13153
Ge   18.71531  14.81356  19.92685   0.06874   0.02431  -0.94831
Ge   19.15513  19.25716  12.81504  -0.18235   0.32967   0.72591
Ge    5.23863  17.21200   0.54100  -0.04796  -0.62153  -0.91888
Ge    3.35057   6.53552   6.03383  -0.71554   1.29953   0.18262
Ge    9.55159   3.53580  17.19040   0.69698  -0.17490  -0.44120
Ge   18.23490   2.36782  20.10922  -0.04167   0.16380  -2.30579
Ge    3.90256   9.70637   5.99290  -0.16300  -0.25892  -0.61130
Sb    9.90424   6.75153  17.07531   2.00249  -0.66793   1.39999
Ge   10.25416   1.90457   4.72561  -0.61496  -0.45493   0.20351
Ge   20.18549  13.36307   5.71502  -0.09634  -0.28919  -0.16286
Ge    7.07584  11.23326   0.06038  -0.19428   1.03664   0.55394
Ge    5.42109  11.85935   5.24180  -0.20300  -0.17468  -0.13652
Ge   17.17020   3.20631   8.69454  -1.05487   1.22063  -1.05010
Sb   16.36530  13.87777  18.72580   0.66982  -0.77116  -1.12511
Ge    3.29315   9.58915  13.39580  -0.16764   0.40869  -0.21300
Ge    2.99395  16.19774   9.47598  -0.54637   0.81809  -1.18127
Ge   11.28956   9.71496  16.66341  -0.04391  -0.13682   0.20049
Sb    3.33346  18.04073   6.58617   0.34542   0.73634   0.06484
Ge   15.49872   0.79471   0.74796  -0.26860  -0.75458  -0.06892
Sb   11.70430   6.96820  10.71912  -0.62093   0.14123  -0.09542
Ge    9.40509   0.94678  13.86753  -0.34440   0.20064  -1.52134
Ge    1.20842   4.94049   4.33997  -0.95367   2.96146   0.67340
Ge    6.81689   4.00019  16.64978  -0.14644   0.08382  -0.03861
Sb    0.57774   0.05841  14.80187  -0.05117  -1.02986   0.52931
Ge   12.59573  12.35375   1.36470  -0.03163  -0.02892  -0.01619
Ge   11.28716  20.08689  18.97877  -0.20749   0.33621   0.37260
Ge   14.30064  14.66499  19.94478  -1.40899   0.27581   0.84771
Ge   13.41063   8.68102   1.64724  -1.13455   2.00079  -0.61264
Sb    7.60004  18.45621   8.93354  -0.09149   0.31945  -1.24342
Sb    7.46368   1.83668   2.92288   0.27671  -0.33102  -0.20014
Sb    4.07529  12.10464   2.31900   0.32396  -0.29514   0.27401
Ge    4.25067   8.93712  10.65788  -0.16069   0.33209   0.50222
Ge   17.29669   3.67180  11.99043   0.57945  -0.63235  -1.21107
   300
 config_type=liqu Lattice="   20.31669   0.00000   0.00000   0.00000  20.31669   0.00000   0.00000   0.00000  20.31669"  Properties=species:S:1:pos:R:3:forces:R:3 energy=-40558.7541 pbc="T T T"
Ge    0.96509  19.61296   0.12494  -0.09383  -0.18030  -0.51300
Ge    8.25894   4.96611  12.05975   0.00925   0.03013  -0.42370
Ge   10.24112  14.58884   9.14282   0.81731  -0.49310   0.92932
Ge   18.82901  19.70930  18.93883   0.20800   0.41277  -0.43834
Ge   10.39905  20.27126   2.25187  -0.63422  -0.53647  -0.36611
Ge    8.69031   2.12289   9.91013  -0.24121  -0.68498  -0.42975
Ge   12.05255   5.00054  16.21016   0.06964  -0.79767  -0.21441
Ge   10.03536  12.82839  18.77452   0.06253  -0.54104   0.03475
Ge    5.13317   2.68969  14.45387   0.13575   0.04590  -0.22373
Sb   15.32903   1.05734  17.37998   0.04946   0.37687  -0.07130
Sb    1.36974   4.75047  13.32156   0.54220   0.27306   0.62202
Ge   18.85044  17.51801  17.02703   0.19602  -0.06218   0.42334
Ge   12.05074  12.50355   4.36351   0.10288   0.84352  -0.29659
Ge   11.14383  18.13851   9.24467  -0.71155   1.00875   0.00765
Ge    5.38808   4.58114  19.33063   0.28305  -0.58926   0.93810
Sb   16.78865   6.39767   2.25082   0.24047  -0.79955  -0.52357
Sb    3.27123   6.83999   4.08726   0.28283   0.08495   0.27153
Sb   10.69334   4.58568   2.98193   0.54219  -0.08989  -0.12755
Ge   10.56586   3.24242   7.89052   0.07679   0.40971  -0.70758
Ge    7.97973  11.79165  12.57474  -0.64614  -0.88590   0.14012
Ge   12.42575   1.87074  18.43730  -0.26722   0.17182   0.19053
Ge   13.75995   8.14727  10.33150   1.14526  -0.53510  -0.27297
Ge   15.37206  12.76170  10.02965  -0.16202   0.37617   0.45282
Ge   18.42222   6.37561  13.06218   0.14026  -0.12468  -0.09543
Sb    1.10801  11.71189   8.57970   2.37580   0.73855   1.10918
Ge   15.71621   9.11698   7.99064  -0.12241  -0.67365  -0.20043
Sb   15.77435   1.83821  14.19050   1.52892  -0.56080   0.18809
Ge   17.92089   8.43766   9.26731   0.27680   0.28754   0.02569
Ge   13.24805   1.80603  15.05174  -1.21587  -0.96425   1.32428
Sb   16.93389  18.68259  15.42618  -0.01769   0.79550   0.10613
Ge   19.52664  10.56601   7.45716  -2.04530  -1.39999  -1.05901
Ge   12.87727   3.79361   9.59364   0.23874  -0.10768   0.06416
Ge    3.33490  15.45040  19.80330   0.62457  -0.47076   0.51460
Ge   10.59100  11.04644   0.72609  -0.15008   0.28752   0.00292
Sb   12.05130  15.27580   6.90899  -0.63508   1.42147  -0.44035
Te   10.92295   7.96609   0.27059  -1.02543   0.41813   0.55289
Sb   10.90720   9.16654   9.37452   0.43815   1.09845   0.02341
Sb    1.96393   1.81402  17.03006  -0.02207   0.44042  -0.29768
Ge   19.00747   2.26731   9.52889   0.53334   0.37939  -0.15868
Ge   13.27831  10.34688   8.50470   0.37413   0.04534  -0.88847
Ge    7.69436  12.56575  15.56234  -0.29905  -0.00243   0.13401
Ge   15.88305   9.34683  16.13723  -0.54099  -1.68860   3.34231
Ge    1.75823   4.82639  19.54800   0.64519  -0.04677   0.17640
Ge    3.71945   9.90137   8.91954  -0.30765   0.06598   0.08015
Ge   16.33368  18.37556   9.90666   1.06313   1.32207   0.06205
Ge   14.42308  16.99068   9.71532   0.00301  -0.75003  -0.41483
Ge   16.65098   8.05635  20.13649  -0.13255   0.06476  -0.34082
Ge    9.30231   7.21329   9.15376  -1.05202  -1.19981   0.00887
Ge    2.59499  19.10560  12.14855  -0.14467   0.21520   0.04877
Sb   15.56773   0.00420   7.17174   0.07820  -0.48633   0.88809
Sb   11.21849   5.85727  13.57360  -0.98053   0.08228   2.32623
Ge    7.27127  10.99917   3.93101  -0.09225  -0.31368  -0.04196
Sb   19.55353  16.84474   4.72694  -0.90216   1.07017  -0.45754
Ge   15.52872   5.47593  20.02150  -0.01337   0.00433  -0.14484
Sb   11.58353  12.69562  11.66914  -1.05927   0.55277   1.19705
Ge    4.02517   6.24082  18.07531   0.01644  -0.12953  -0.27557
Ge   17.74556  11.68983   4.23557  -0.02741  -0.03460  -0.16785
Ge    5.10478  15.76226  17.54236   0.28884  -0.49124  -0.33964
Ge   12.44310  17.27733  15.49894  -0.17386   0.02805  -0.45403
Ge   18.01758   1.15654  11.56991  -0.88901  -0.51754   0.23009
Ge    4.34672   0.23684   2.27487   0.90209   1.26468  -0.24778
Sb    9.85765  17.43561   5.22495   0.17696   0.62211  -0.44403
Ge   15.42953   5.43876   5.73638   0.50431  -0.18899  -0.17337
Ge   12.18376  18.24793   3.19726  -0.88768  -0.20329  -0.30737
Ge    7.06685  14.59661   2.56224  -1.09344  -0.03462  -0.60929
Ge    6.78508   9.23808  16.43616  -0.24433  -1.14563  -0.37146
Ge   14.04582  14.71857   4.10199   0.73453  -0.92156   0.27340
Sb    0.78482  11.61098  11.34534  -1.29742  -0.57063   0.66538
Ge   15.63303  12.10178   2.57917   0.36270   0.53379  -0.05224
Ge    6.99755   6.35872   1.91607  -0.11757  -0.35198  -0.08087
Ge    9.15421   9.12164  18.39853   1.06038   1.02872  -0.17737
Ge    9.42299  18.43364  16.27865   1.66445   1.00011  -0.72231
Ge    9.11133  13.45991  10.94502  -0.75204  -0.24518   0.03476
Ge   18.31441   1.32747  16.29069  -0.72516  -1.71409   0.55623
Ge    0.48880   6.01138  11.12543  -0.59964  -0.52490  -0.33128
Ge   19.68865   8.32641  12.32020   0.43331   1.02090  -0.08319
Ge    2.25242  19.45146   2.48688  -1.65073  -0.56214  -0.05138
Ge   14.45049  17.07772   3.44562   0.72849  -0.23147  -0.88429
Sb   17.14361  15.75932  10.80036   0.02350   1.35729  -2.06679
Ge   13.36268  18.50875   7.84734   0.14377   0.38135  -0.48385
Ge    0.19712  15.96479   7.08607   0.11780   0.11018   2.04552
Ge    5.83544  14.22534  20.26428  -1.11105  -0.34951   0.17477
Ge    1.05532  14.96825   5.01812   1.90933  -0.89342  -0.73670
Ge   17.59408  12.01487  15.81417  -0.01342  -0.22882   0.16604
Ge   10.46147   8.14872   3.37356  -0.10730   0.23391  -0.63061
Sb   12.08904   0.52099   4.35041   0.72213   0.61370   0.57046
Ge   13.88628   6.85815   1.85128  -0.60081  -0.83359  -0.04267
Ge   18.17610  10.64398  10.96033   0.27265  -0.44400   0.61919
Sb   12.70218   3.76917   0.32637   0.01444  -0.36297   0.13597
Sb   18.51057   4.77903   6.99632  -1.81748   1.05989   0.57269
Sb   12.40433  17.90726  11.92290  -0.05408   0.01193   0.29401
Ge   14.61818  12.80173  13.42218  -0.45206  -0.54570   0.25705
Ge   10.22415   2.09181   0.61819   0.04973   0.24551  -0.18869
Ge    5.86180   5.32150  11.20576   0.80992   0.15983   0.03062
Ge   17.11151  11.33050   8.74659   0.36106  -0.06494  -0.26341
Ge   12.73095  13.11267   9.10812  -0.49450  -0.06824   0.28572
Ge   14.75168  15.78164   0.15680   0.50529   0.18093   0.22148
Ge    5.04134  19.21112  10.01081   0.01642  -0.98782  -0.77636
Sb   11.49525   3.20474  12.51493  -0.25204  -0.92148  -0.63586
Sb    3.22688  19.68382   5.60428  -0.23817  -0.01635  -0.32959
Ge   16.92877  16.67174  18.98444   0.02249  -0.07530  -0.24394
Ge   13.74775  13.36020   6.83482   1.21438  -1.04749  -1.19275
Ge    4.50180   0.16085  13.73568  -0.11393   0.13879   0.29091
Ge   12.83709   0.93248   1.59788   0.76451   0.68403  -0.47898
Ge   13.67625  14.57918  11.62852   0.25736   0.40579   0.20608
Ge    7.99607   0.51081  19.26215   0.69487  -0.01978   0.34453
Te   19.33285  10.55185   0.05570   0.28036   0.61781  -0.66812
Te   15.47770  16.82782  13.65987  -0.23891   0.06931   0.13274
Te    4.50362   5.35113   7.49459   1.55306   0.15239  -1.79336
Te    3.37619  12.51634  15.09788   0.10383   0.44424   0.29021
Te   19.34690   3.39118  15.28522   0.60270   1.26436  -0.42272
Te    8.89170  10.06490  14.98074  -0.47656   0.25061  -0.30384
Te   19.58135  13.18354  17.49810   0.32920   0.88745   0.32132
Te    7.33318  14.39918  13.17781   0.74944   0.71475   0.17111
Te    6.80260   8.74748   8.56192  -0.80453  -0.50028  -0.00254
Te    6.17635  18.56434   2.49539   0.84037  -0.35329   1.65611
Ge   16.73017   5.25118  14.60591  -0.16351  -0.64366   0.71184
Te    3.01256   7.47934  20.26159  -0.39532  -0.00230   0.52096
Te    7.24176   9.10879  20.03023  -0.99301  -0.70207   2.11441
Te    8.90725  17.59453  11.83395  -0.16884  -0.52003  -0.12082
Ge    2.09345   1.84729   3.32883  -0.37867   0.32123  -0.36337
Te   13.47214  10.77637  16.94096   0.81675   0.18067   0.02014
Ge    1.89430  19.07909   9.36736   0.90814  -0.22646   0.57874
Te   15.23077   6.01612  12.00061   0.06974  -1.88390  -1.45929
Te    5.89801   3.15509   5.49956  -0.69211  -0.11408  -0.71938
Te    2.24855  13.99488  11.56707  -0.16150   0.84861  -0.18170
Te    4.18538  16.39617   4.57544  -1.34367  -0.99953  -0.27951
Ge   17.25339  19.08076   3.27018  -0.67013   0.36453   0.22916
Te   20.31188   0.16212   8.11974  -0.72400   0.24500  -0.38523
Te    8.86723   9.43633   6.06349  -0.41611  -0.01621  -0.73434
Te    4.86024  15.63261  11.78000  -0.06356   1.13228  -0.33952
Te   20.04627   3.17998   2.12157   0.51587   0.16047  -0.13060
Te    2.30483  13.50886   1.57650   0.69602  -0.86374  -0.26126
Ge   14.03636  10.65820   4.10502   0.61994   0.83817   1.25436
Te    8.39528  17.70657  18.50247  -0.46845  -0.07423   0.75659
Te    8.66705  11.09187   9.03120  -0.45012   1.21983   0.30963
Te   18.84329  18.45742   1.00037   0.23130  -0.49719   0.07829
Te   11.86929   9.04962  13.60516   0.46324   0.06421   0.43620
Te    6.51940  14.99071   8.21636  -2.21968  -0.33111   1.21574
Te   19.71012  17.05530  11.76408  -0.16426   0.26996  -0.46245
Te   10.15237  13.58243  15.55747   0.48393   0.24882   0.02957
Ge   11.44008  15.30697   4.13611  -0.41164   0.07014  -0.82719
Ge   18.12294   5.98108  10.06276   0.26091  -0.62902   0.33801
Te    1.69097  11.18555   5.76306   0.26120  -0.69078  -1.43458
Ge    8.19270  15.53311   0.28179  -0.63433  -0.31382  -0.09586
Te   11.61764  16.21709  17.94778  -0.27645   0.65950   0.26136
Te    4.23056  12.53096  18.32980   0.25816   0.14319   0.32245
Te    8.93781  15.01534   7.08976   0.70486   1.37822   0.03509
Te   13.70233  14.28597  15.78490   0.08776   0.56501  -1.69061
Te   14.26994  20.22503  11.32088   0.80129   0.54009  -0.60567
Te    6.52587   5.77872  15.62078  -0.38681   0.39586   0.29749
Te    7.90667   1.42018  16.74960  -0.58177  -0.21415  -0.49884
Ge    7.14728   2.50307  12.23190  -0.66382  -0.01010   0.34005
Te    6.56897  17.48139   5.48777   1.05478   0.14099  -0.12197
Te   12.07686  10.48573   6.10077  -0.41297  -0.87547   0.40044
Ge   15.54266  11.24846   6.51999  -0.10581   0.12194  -0.92781
Te   14.67338   3.00870   7.00521  -0.17881  -0.07280   0.45267
Te    8.36386   5.37479   6.09338  -0.65277  -0.06097  -0.29234
Te    3.39427   3.81640   1.37511  -0.02705   0.17323  -0.13319
Te   16.97169  13.88272  12.63346   0.40057  -2.45862   1.42300
Ge   15.29384   2.67207  11.25493  -0.62590  -0.17315  -0.05363
Te    0.74683  15.69212   1.35697  -0.18514   1.27914   0.92532