   300
 config_type=liqu Lattice="   20.31669   0.00000   0.00000   0.00000  20.31669   0.00000   0.00000   0.00000  20.31669"  Properties=species:S:1:pos:R:3:forces:R:3 energy=-40549.2240 pbc="T T T"
Ge    1.51490   1.18602  19.87670  -0.55551  -0.36986   0.21011
Ge    7.09209   3.72978  12.06065   0.16125  -0.03861   0.01666
Ge    9.52330  14.22017   8.96155   0.22549   0.24983   0.03241
Ge   20.27189   0.41273  18.07237  -0.81873  -0.49060   0.96584
Ge   10.40115  19.96563   2.45671  -0.65725   0.79697  -1.03778
Ge    7.68735   2.72753   8.50477   0.36220  -0.24108  -0.11957
Ge   12.76628   3.87141  17.06257  -0.20437  -0.19208  -0.17801
Ge    8.66956  12.93503  18.92676   0.13172  -0.44212   0.11700
Ge    3.13041   3.03226  15.77588   1.62983  -3.03279   2.33611
Sb   16.68349   1.00288  18.79111   0.07541   0.31049   0.16505
Sb    2.09851   4.95220  15.13137  -2.42230   3.21411  -1.64127
Ge    0.40445  17.77488  18.85471  -0.10063   0.48943  -0.80640
Ge   12.00894  14.78230   3.61513  -0.16130  -0.74747  -0.03093
Ge   10.38397  19.02005   9.64812   0.21422  -0.18180   0.01952
Ge    5.74071   4.81407  20.05595  -0.49798   0.31763   0.53281
Sb   17.67980   5.65619   1.32795  -0.61809   2.06466  -0.20257
Sb    3.36576   5.63579   3.16594  -1.39372   0.44317   1.31732
Sb   11.08863   5.71966   2.10983   0.42323   0.29285   0.06043
Ge   10.44999   1.76197   7.43995  -0.30544   0.20576   0.06108
Ge    6.73291  11.76459  13.23625   0.29905   0.22024   0.19955
Ge   11.20228   2.71512  19.72183  -0.11333  -0.44892  -0.13227
Ge   14.18582   7.84651   9.14927  -0.35177   0.01230   0.31546
Ge   15.01806  12.68780  11.44941  -0.20001   0.12846  -0.21151
Ge   19.00434   6.35785  13.79840  -0.26977   0.12776   0.27888
Sb    0.85063  12.72242   8.17765   0.31518  -0.41111   0.85164
Ge   15.85008   8.92115   7.37297  -0.00787   0.14908  -0.13863
Sb   16.69099   1.38401  14.20861  -1.03477   0.53610  -1.06257
Ge   18.34884   8.35872   9.65093   0.13754   0.30499   0.10196
Ge   12.83245   1.32280  17.41177  -0.02799  -0.32082  -0.08758
Sb   18.24594  17.85632  15.31723   0.59477   0.09501   0.10226
Ge   20.30721  10.82231   6.17479   0.19452  -0.68026   0.94257
Ge   11.74666   3.11776  10.13974  -0.11804   0.27717  -0.05576
Ge    3.46483  14.50777  20.09171   0.14386  -1.06378   0.67196
Ge   10.09695  11.16914   0.54255   0.32767   0.26310  -0.05076
Sb   12.09507  15.84092   6.20359  -0.14277  -0.73294   0.12457
Te   10.60438   8.48163   0.37568   0.26707  -0.19455   0.25817
Sb   10.82537   9.45030   8.81377   0.25131  -0.09685   0.75509
Sb    3.88434   1.27657  17.91774  -0.63361   0.14502   0.35564
Ge   18.73137   0.86822   8.70103  -0.77714   0.20688   0.50644
Ge   13.44734  10.56408   8.11032   0.06816  -0.28944  -0.03003
Ge    7.40672  12.38061  15.83054   0.27577   0.12585   0.18871
Ge   16.31575   8.36014  17.52992  -0.02370  -0.24799  -0.59091
Ge    1.60979   4.88587  18.98581  -0.35927   0.07934   0.06662
Ge    2.87085  10.29482   7.95821  -0.29797   0.18360  -0.15097
Ge   16.98532  19.06141  10.62440   0.10038   0.16182  -0.26765
Ge   15.36231  16.96107   8.64122   0.02075  -0.17979  -0.10857
Ge   16.73581   8.13774  20.07661   0.07743  -0.55740   0.26581
Ge    8.04495   7.51600   8.87842   0.18140  -0.26519   0.27033
Ge    2.25615  20.04106  13.23873  -0.22700   0.53434  -0.23712
Sb   15.87100  19.65217   8.00065   0.38914  -0.24939  -0.12350
Sb    9.99479   5.29060  14.75743   0.04882   0.20232  -0.22136
Ge    7.29099  11.08245   4.13150  -0.06823  -0.35150  -0.12133
Sb   19.87437  17.59054   4.43945   0.56318   0.71289  -0.63948
Ge   16.11713   3.98806  19.42296   0.03234  -0.61808   0.04064
Sb   11.74418  13.49341  11.16494   0.06276  -0.07822   0.05939
Ge    5.21695   7.74791  18.46764  -0.68932  -0.52262  -0.35277
Ge   18.76851  11.63532   3.70263  -0.54695   0.25829  -0.11773
Ge    5.19477  15.73516  18.05750   0.36683  -0.08568  -0.39710
Ge   12.63459  16.68522  14.62683  -0.01010   0.02561   0.36390
Ge   19.01357   1.03619  11.69767  -0.14519   1.02972  -0.83815
Ge    3.81356  20.12763   1.82113  -0.62768   1.29745   0.68880
Sb    8.37863  18.42662   3.62406   0.98553  -0.56502   0.93498
Ge   16.77849   5.22328   5.44415  -0.62673   0.79973   0.39333
Ge   11.68981  18.15063   3.43636   0.96400  -0.85584   0.44632
Ge    6.36830  14.72173   2.80219   0.03907  -0.25370  -0.45132
Ge    7.59305   7.67635  17.83750   0.82924   0.23607  -0.83625
Ge   14.43308  15.25631   4.01790   0.47775   1.74819   1.02889
Sb    1.57671  11.11999  10.92977  -0.69446  -0.17933  -0.08196
Ge   14.67002  13.56938   2.49689   0.53952  -1.49043  -1.53019
Ge    6.54900   5.65795   2.60284   0.23731   0.00621  -0.52154
Ge    9.15093   9.66593  18.50604  -0.29223   0.24023  -0.24589
Ge   10.46181  18.05801  16.16607   0.62317   0.37622  -0.28360
Ge    8.59375  13.06157  11.76742  -0.53633   0.22073  -0.03864
Ge   18.22963   0.26490  15.98903   0.18696  -0.00811   1.05762
Ge    0.63752   5.66266  12.28333   0.18862  -0.21726  -0.32639
Ge    0.25991   8.79305  12.10923   0.37159  -0.34523  -0.07251
Ge    2.05179  18.85498   0.96925  -1.71436  -0.21142  -0.47467
Ge   15.27763  17.91215   2.34548  -0.85885  -1.08955   0.01849
Sb   19.09842  15.63375   9.22445  -0.38956  -0.11910   0.31305
Ge   12.62075  18.41637   6.70602   0.85080   0.60736   0.17533
Ge    0.21022  17.63248   8.02916   0.15329  -2.27167   0.06529
Ge    6.05171  13.82773  20.04011  -0.14555   0.43076   0.68468
Ge    1.15229  15.21117   6.66507   0.38867   0.76437   0.08259
Ge   17.66151  11.53272  17.59626   0.20518  -0.03247  -0.70801
Ge    8.74161   8.12996   2.78420   0.39053   0.12988   0.19037
Sb   13.04791   1.19249   4.61366   0.09393   0.23975  -0.42767
Ge   14.82768   5.79977   1.26419   0.24244   1.66137   0.62840
Ge   18.79951  12.06973  10.62894   0.16855  -0.31869  -0.52243
Sb   13.69531   3.62721   0.50294   0.26167  -1.54507   0.49420
Sb   19.21503   4.39089   6.44304  -1.28260   1.37604  -1.03918
Sb   10.55951  18.56345  13.25971   0.54066   0.03933  -0.07128
Ge   14.39050  12.56073  13.96666  -0.06173  -0.43219   0.30450
Ge    8.93380   3.01979   0.78755   1.47181   0.51954  -1.23586
Ge    5.80390   6.19320   9.65225  -0.03060   0.29052   0.34309
Ge   17.19505  10.85083   8.87471   0.05809  -0.37811   0.06455
Ge   12.15646  13.42765   7.73946  -0.13257   0.09408   0.21036
Ge   16.83796  16.42664  20.31033  -0.37506   0.27065  -0.04003
Ge    4.57692  18.41977   8.87306   0.36720   0.36324   0.09702
Sb   11.78882   3.54632  13.07722   0.23564  -0.04004  -0.05063
Sb    3.88477   0.90461   4.55528  -0.65488  -1.32743   0.15375
Ge   17.81719  18.40374  18.04827  -0.20684  -0.13177   0.70158
Ge   13.87376  12.79119   5.17335   0.05233   0.50005   0.49213
Ge    3.96210   1.17719  14.57580   0.10874  -1.91977  -0.19482
Ge   12.60994   0.74902   1.38873  -0.28953  -0.01236   0.04800
Ge   14.03319  15.09622  10.92812   0.14140   0.10286  -0.11339
Ge    8.39519   0.44292  19.95414   0.53926   0.34782   0.46890
Te    0.01357  10.06902   0.95399  -0.54215  -0.06300  -0.18668
Te   16.15278  16.57149  14.35429  -1.22103  -0.56855  -0.58254
Te    4.29982   4.33589   7.48734  -0.42809  -1.13300  -0.55315
Te    4.61172  13.19329  15.11863  -0.20711  -0.58036   0.33691
Te   18.83239   3.63366  16.42637  -0.03185  -0.21489  -1.26397
Te    8.71422  10.04024  15.13464  -0.02771  -0.19167   0.28559
Te   20.18713  13.10162  17.88357  -0.12332  -0.08109  -0.66001
Te    7.46966  15.62960  13.51408   0.43743  -0.65098   0.38835
Te    4.94004   7.52166   7.28039   3.85662   2.29233   5.14902
Te    6.00643  19.07443   2.38302   0.42422  -0.45015  -0.34848
Ge   16.46764   5.35693  13.42433   0.09357  -0.34615   0.14945
Te    3.59230   6.74606   0.75853  -0.96114   0.43503  -1.27761
Te    6.53294   8.03598   0.68926  -0.02837   1.43530   0.45688
Te    7.83622  18.78237  12.19614   0.17460   0.91169  -0.27313
Ge    2.07913   2.58008   3.27563  -1.33826   0.04900   0.02578
Te   14.49496  11.56721  17.31142  -0.18396  -0.69571  -0.20212
Ge    2.41944  19.35869  10.58903  -0.34796   0.27416  -0.16847
Te   13.74855   5.62586  12.16901   0.42813  -0.08660  -0.00918
Te    4.92549   3.40289   3.18446   0.87523   0.22364   1.05071
Te    1.80478  14.24233  11.31766  -0.41046   1.05788  -0.39394
Te    2.29120  16.13901   4.17720   0.51459   0.10969  -0.10856
Ge   16.58540  19.83511   1.76441   0.25080   0.50267   1.64188
Te    0.71070  20.08887   7.67154  -0.24640   1.54615   1.35534
Te    7.44925   9.34260   6.33406   0.57382   0.04827  -0.68022
Te    5.82030  16.66765  11.30223  -0.99721  -0.46483  -0.41460
Te    0.04064   4.10593   1.73670   2.60910   0.70438  -0.36624
Te    1.05173  12.83400   0.40844   0.62534   0.66553   1.20488
Ge   13.06243  11.06016   3.62399   0.52008  -0.52736  -0.56419
Te    8.55398  18.26653  18.55882  -1.50120   0.80010  -1.44295
Te    8.52961  11.56837   8.91713  -0.00741  -0.39114   0.18207
Te   18.55413  18.98126   0.53983   1.15246  -0.17056  -0.56386
Te   11.17734   8.10850  14.23064   0.16118  -0.02967   0.00304
Te    6.53616  13.77113   9.84279   0.06805   0.00295  -0.06269
Te   20.20580  16.47730  12.85306   0.33847   0.32392  -0.97065
Te   10.08796  13.57046  16.32718  -0.15462  -0.32058  -0.06507
Ge    9.93935  16.11752   2.75178  -0.08872  -0.02130  -0.22800
Ge   18.51152   4.85003   9.98586   0.25050   0.56386  -0.56678
Te    1.51916  10.48835   3.94549  -0.74573   0.27064  -0.82053
Ge    7.54664  16.09444   0.89561   0.50105  -0.37511  -0.36107
Te   11.06824  16.34579  18.72613   0.31518  -0.00929  -1.56412
Te    2.73863  11.48212  18.26021   0.20407   1.49707  -0.56188
Te    9.24475  16.58622   7.03310  -0.17911  -0.22372   0.04718
Te   13.78616  14.48231  16.17554  -0.04990   0.39432  -0.68229
Te   14.67473   0.30170  11.33439   0.26107   0.04588   0.55655
Te    6.31189   6.71418  14.65051  -0.34376  -0.13689   0.33558
Te    6.89083   0.70833  17.31313   0.43460  -0.01176  -0.59290
Ge    6.01819   1.81703  13.40752   1.14282  -0.56313  -0.14719
Te    5.69416  18.31925   6.20126   1.39437  -0.40159  -0.02874
Te   11.51641   9.65761   5.93721   0.33255   0.31666  -0.14843
Ge   17.77163  11.22355   6.10996  -0.88129   0.29779   0.37172
Te   14.59657   2.28593   7.52139  -0.18396   0.53573  -0.26534
Te    8.38296   4.57062   6.27140  -0.36871   0.54348   0.05778
Te    3.62869   2.38380   0.69533  -0.65397   1.16984  -0.15472
Te   18.40593  13.74843  12.78184  -1.32195   0.04552  -0.24319
Ge   14.51728   3.15210  10.47059   0.28179   0.17100   0.00585
Te    0.25894  16.48058   1.01172   0.01798  -0.22276   0.16372
Ge    5.28397  12.13722  18.29433   1.02278  -0.39528  -0.42733
Te    4.08110  12.72155  12.22565   0.99864  -0.43239   0.15967
Te    2.49783   8.93782  18.97035   0.00442  -1.27867   0.35319
Te   13.30471   9.67368  12.35283   0.19856   0.60445   0.27174
Ge   16.06214   3.64537  16.64499   1.06723   0.23450   1.21402
Te    8.64644  13.44852   1.60665  -0.11609   0.04610   0.94687
Te   20.16193   7.57515   3.57132  -1.11304   1.62801  -0.93359
Te   18.27972  14.05765   6.80100  -0.93698   0.19027  -0.10760
Te   13.36151   6.82263  17.04245   0.47920  -0.15250  -0.69401
Te    0.25810  12.57615  13.93947   0.48491  -0.01206   0.35935
Te    1.06270  16.82654  15.69977  -0.61417  -0.44392   0.04578
Te    4.88467   9.57894   3.16711   1.49998  -1.83098  -0.93814
Te    8.33878   8.24626  11.56738   0.06516   0.02976  -0.18803
Te    8.33793   5.94051  19.92606   0.28728  -0.50567   0.21166
Te   18.85373   2.40745   4.27816   1.07028  -1.09407   1.87637
Ge   12.19626   5.32767  19.43521  -0.08725   0.22163   0.08076
Ge    3.37336  14.24300   7.98661   0.08354  -0.03661   0.12564
Ge    9.81223   1.26896  16.87127   0.60872  -0.19306  -0.45280
Ge    1.73243   2.90346   6.52154   0.64245  -0.28626  -0.32963
Ge    4.87627  18.77566  18.70667   0.24304   0.16338  -0.25692
Ge   10.78882   5.89713   6.96669   0.24034  -0.22413  -0.47342
Ge   18.23438  14.55331   3.25651  -0.09192  -0.08813   0.00419
Ge    5.27991   3.61219  10.02386   0.45961  -0.37306  -0.10984
Ge    2.38534  18.73420  17.09282  -2.72703   0.09394   1.88968
Te    0.97215  10.19333  15.79867  -0.14338  -0.03846  -0.62386
Ge    3.85811   8.52364  16.21489  -0.04150  -0.17299  -0.38318
Ge    1.42455   1.88352  10.25163   0.14517  -0.37093   0.54954
Ge   14.85256   8.89550   3.61154  -0.85155   0.10271   0.11583
Ge   18.03226   8.34359  12.35426  -0.22829   0.06095  -0.30517
Ge   17.21619   9.91946  14.23705  -0.08520   0.21383  -0.37996
Ge   16.18303   6.21926   8.25621   0.22355  -0.00015   0.10347
Ge   11.81606  12.18989  18.46898  -0.43209   0.14600  -0.01603
Ge   11.68967   3.88337   5.01855   0.53557  -0.25766   0.38975
Ge    2.21369  15.14167  17.88081  -0.03047  -0.30586  -0.50034
Ge    7.21939  19.72092  14.73360   0.13011   0.21789  -0.16446
Ge   10.43395   7.41926   4.78015   0.25100  -0.25930  -0.11548
Ge   15.36548  16.97087   5.84354   0.05262  -0.03119   0.62265
Ge   17.98335   3.25482   2.12069  -2.07467  -1.47676  -1.69824
Ge    0.87147   2.50773  13.07388  -0.02938  -0.06799  -0.52396
Ge    1.45235   8.46186   9.40195  -0.17332  -0.05033   0.56954
Ge   18.47587   9.08318  16.26096   0.09118  -0.29930  -1.17337
Ge    9.81647  17.70747   0.43459   0.82914   0.26156   1.48788
Ge   14.08594   8.51919  18.96327   0.09747   0.27473   0.50309
Ge    3.59853  15.62531  15.51201  -0.13198   0.02028  -0.00585
Ge    4.09083   4.31439  18.10958  -0.09240   0.05887  -0.59385
Ge    4.29730  19.03853  15.99678   2.36558   1.29369  -1.64984
Ge   15.09307   4.59156   3.62352  -0.44985   0.55144   0.29567
Ge   20.21188   3.30431   8.40740   1.16209  -0.80379   2.37839
Ge   12.98148  18.68310  17.52707  -0.20419   0.47006  -0.07368
Ge    8.23218   3.06084  14.55816   0.18250   0.38847  -0.21791
Ge   18.15024  12.36635   1.19959   0.36453   1.03894  -0.02013
Ge   17.20139   9.59838   2.97040   0.13007  -0.36163   0.19758
Ge   19.92944  18.43841  10.87095   0.19723   0.04145  -0.21795
Ge    1.31444   5.76077   9.09580  -0.24693  -0.31287   0.17918
Ge   14.54436   3.21162  14.92603  -0.91320  -0.13043  -1.32501
Ge   14.85701   9.30940  15.08807  -0.24297   0.38850  -0.17523
Ge   18.12916   8.78454   5.46944  -0.34878  -0.81178  -0.28903
Ge   15.40164   0.00246  16.74448  -0.77795  -0.27223  -0.70323
Ge   17.54636   0.11735   4.13950  -0.65217  -1.12024   0.18586
Ge    5.53273  10.35153   8.48752  -0.00887  -0.04298   0.30769
Ge   18.01578  16.66022   5.94602  -0.66901  -0.15236   0.67436
Ge   13.22511   6.83355   4.46714   0.12491  -0.20483  -0.13011
Ge    4.14600   1.42850  11.36442  -1.03200  -0.64357  -0.45555
Ge    2.99506  16.91933  19.62350  -0.58778   1.08539   0.07268
Ge    6.66219   6.62611   4.99595   0.65861   0.32405   0.56344
Ge   16.72680  10.47154   0.51301  -0.07397   0.09076   0.08780
Ge   19.19580   9.75044  18.61792   0.05985  -0.12530   1.20015
Ge    7.24501   3.08680  19.08697   0.62949  -0.22010  -0.36048
Sb    6.20712   2.01135   5.98638   0.38037   0.06728   1.27979
Sb   13.15912  18.27358   0.19194   0.39556   0.85052   0.58323
Ge   15.56830   2.10553   3.52296  -0.24707  -0.51587  -0.26482
Ge    1.28611   7.37039  15.70051  -0.21420   1.02770   0.03930
Ge    8.15649  15.50440  18.38328  -0.51952  -0.53160   0.25199
Ge   18.94474  14.94884  16.48751  -0.32689   0.38177  -0.19283
Ge    3.21405   4.99412  10.80337  -0.22525   0.59592   0.41959
Ge   10.58908  10.58108   3.34386  -0.73909  -0.04338  -0.22600
Ge    6.28206   9.12597  13.28273  -0.17856   0.02606  -0.18958
Sb    0.40791   7.21935   0.47054   0.03120  -0.75122   0.11094
Ge    3.85697   3.42557  13.07183  -0.13255   0.72668  -0.55012
Sb   10.32349  19.61179   5.61150  -0.20765   0.08180   0.65768
Ge   15.01150  19.26860   4.73153  -0.24463  -0.08543   0.18764
Sb    4.07903   0.65874   7.85347   0.05283   0.59888   0.33808
Ge   11.56001   0.87164  11.90151  -0.14563  -0.38810   0.09812
Ge   20.17486   7.32396  17.86314  -0.13986  -0.39528   0.45017
Ge   14.35017  11.05700  20.16377  -0.25643   0.17945  -0.00290
Ge   17.37923   5.97384  18.48204  -0.33891   1.14306  -0.64412
Ge   10.23902  10.60083  11.53414  -0.01510  -0.04684  -0.18822
Ge    3.69466   6.62203  13.51151   0.00404   0.23654  -0.36624
Ge    0.32140   0.39093   2.05303   0.36515  -0.13894  -0.10892
Sb    1.25030   7.24443   6.58847  -1.59305   0.32228   1.31099
Ge    0.53485  14.46727   2.81798   0.05517  -0.64389  -0.23515
Ge    5.80301   0.91753  20.18741   0.12246  -0.61127  -0.11185
Ge    9.49999   4.22734   3.63714  -0.75293  -0.03441  -0.19876
Ge    6.51502   0.98746  10.56319   0.69795  -0.06009  -0.09831
Ge   11.28778  14.49272   0.13511  -0.31308  -0.79986   0.96456
Sb   12.60138   0.48139   9.07679  -0.88676  -0.55828  -0.30926
Ge    2.68367  17.60596  12.63459   0.12703  -0.69365  -0.09528
Ge   14.22608   5.23909   6.77350  -0.04226  -0.00760  -0.30412
Ge    2.93065  12.74013   5.89667  -0.75710   0.71529   0.30498
Ge   19.24842   4.42969  18.86278   1.31976   0.70692  -0.07332
Ge    0.87024   0.36940   5.19620  -0.09893   0.28148  -1.85820
Sb   10.60628  14.93179  13.79063  -0.08809   0.07412  -0.44786
Ge   11.92231  16.02807   9.30031   0.15990   0.10706   0.35253
Ge    5.68030  17.06178  15.72485   1.09462  -0.39357  -0.26332
Ge   10.10821   5.32775   9.32558  -0.24366  -0.42837   0.34991
Ge   18.74982  14.60635  19.95623   0.23531   0.42905   0.21882
Ge   19.41288  19.70260  13.50090   0.41259  -0.34492   0.02199
Ge    5.33212  17.10261   0.29892   0.20215   0.18576   0.34197
Ge    3.59349   6.71462   5.68536  -2.56848  -3.21025  -4.10459
Ge    9.32166   3.81454  17.25042  -0.12000  -0.40037   0.12058
Ge   18.97208   2.26043  19.88539  -0.01425  -1.23188   0.87587
Ge    3.18055   9.09939   5.40495   0.08130   1.34237   0.56269
Sb   10.42014   6.40209  17.76033  -0.73645   0.70138  -0.93002
Ge    9.53731   1.59025   3.97064   0.85772  -0.19300   0.70049
Ge    0.12946  13.19261   5.09570   0.14115   0.64389   0.21488
Ge    6.78523  11.13117   0.21107   0.10870   0.02829  -0.09259
Ge    4.77023  11.40896   5.05066   1.26921   0.46188   0.34927
Ge   17.16225   3.09993   7.88812   0.13431   0.08821   0.51000
Sb   16.45799  13.39041  19.06322  -0.96601   0.58992   0.58656
Ge    2.90695   9.97241  13.63741   0.19785  -0.22211  -0.11378
Ge    3.01862  16.46656   9.40062  -0.78856  -0.21528   0.22835
Ge   11.24074   9.65334  16.98744   0.11237   0.04965  -0.31025
Sb    2.92433  18.57889   6.06994  -0.30210  -0.11467  -0.31669
Ge   15.11828   1.01878   0.72836  -0.88406   0.92987  -0.34541
Sb   11.38059   7.19542  10.89569   0.46591   0.05228  -0.11665
Ge    9.51995   1.05860  13.60423  -0.12953  -0.48582   0.23638
Ge    0.54293   5.51539   4.69030   1.28986  -2.08820  -0.29371
Ge    6.45618   3.32813  16.37038  -0.47965   0.45842   0.29978
Sb    0.76761   0.48416  15.63629   0.61793   0.69368  -1.04114
Ge   12.60749  12.55846   0.95621   0.36400  -0.71339   0.57893
Ge   10.95332   0.01345  19.00998   0.27292   0.03828  -0.08755
Ge   13.62110  15.68908  20.01983   0.86133  -0.53122  -0.01672
Ge   13.37255   8.84957   1.16119   0.30308  -0.24675   0.25111
Sb    7.50139  18.01590   9.04039   0.34824   0.34375  -0.11431
Sb    7.41071   2.22613   2.59277  -0.54985  -1.29988   0.35760
Sb    3.62957  11.78406   2.12904   0.06952   1.40174  -0.46769
Ge    3.81525   9.37074  10.63722   0.31402  -0.36878  -0.20012
Ge   17.56381   3.46992  11.82973  -0.31564  -0.38467   0.44879
   300
 config_type=liqu Lattice="   20.31669   0.00000   0.00000   0.00000  20.31669   0.00000   0.00000   0.00000  20.31669"  Properties=species:S:1:pos:R:3:forces:R:3 energy=-40559.9292 pbc="T T T"
Ge    1.75135   0.21564  19.83308  -1.29478  -0.19322   0.96385
Ge    7.24768   3.84623  11.82125   0.56609   0.48340   0.11818
Ge    9.86854  14.32423   9.09232  -0.02423  -0.05996   0.05174
Ge   19.76485   0.07856  18.10434   0.15659  -0.39090   0.18565
Ge   10.33011  20.17395   2.65153  -0.08113   0.17914  -0.08180
Ge    8.00150   2.44910   8.80827  -0.07548   0.27035   1.00093
Ge   12.47151   3.62291  16.73030  -0.02087   0.81143  -0.33234
Ge    8.78951  12.33166  18.83278   1.36959   1.20471   0.50157
Ge    4.79891   3.21629  15.18335  -1.12957  -0.08137  -0.06660
Sb   15.98849   1.19841  17.88989  -0.95532   0.34149   0.73751
Sb    1.67434   5.54560  14.60383   0.21797  -0.60585  -0.26024
Ge   20.20352  17.29355  17.88878  -0.58062   0.93437   1.27011
Ge   12.28930  13.92010   3.73756  -0.07045   0.43907  -0.08046
Ge   10.30860  18.65311   9.77495   0.77971  -0.04683  -0.20473
Ge    5.43276   4.87711  20.12670   0.05084  -0.45291  -0.16233
Sb   16.85181   6.08546   1.56742   1.23491  -0.11993   0.10781
Sb    3.69622   6.33717   3.36751   0.19921  -0.46009  -0.06045
Sb   11.43319   5.47896   2.70383  -0.68015  -0.96348  -0.78792
Ge   10.19198   2.28717   7.67411   0.97634  -0.10523  -0.27199
Ge    7.02705  11.82994  13.50229  -0.03678  -0.08316  -0.25882
Ge   11.35629   2.50693  19.00912   0.44985   0.01570   0.64321
Ge   13.96067   7.84362   9.38749   0.21774  -0.24650   0.01918
Ge   14.62347  12.76731  11.35803   0.42354  -0.07855  -0.27836
Ge   18.71987   6.54415  14.03142   0.13748  -0.20166  -0.42836
Sb    1.29791  12.43737   8.37734  -0.64591   0.28316  -0.41563
Ge   15.76800   8.94610   7.42086  -0.20009  -0.03752   0.03800
Sb   16.17298   1.63083  13.70704   0.54678  -0.01265   1.70456
Ge   17.82619   8.39464   9.63239   0.46364  -0.20490  -0.47111
Ge   12.97905   1.16904  17.09245   0.46646   0.13871  -0.26195
Sb   17.87303  17.96487  15.28635  -0.15880   0.52843  -0.17027
Ge   19.80395  10.26285   6.74997   0.11007   0.17486  -0.15510
Ge   11.76775   3.47916  10.17695   0.67839  -0.47719   0.02932
Ge    3.76839  14.68448  20.02429   0.21009   0.39523  -0.11079
Ge   10.04324  11.30133   0.80932   0.48480   0.03420  -0.31861
Sb   12.08602  15.50135   6.29419  -0.37462   0.56290  -0.11320
Te   10.56601   8.61442   0.42848   0.69625  -0.38736   0.02183
Sb   11.08731   9.39390   9.02531  -0.40355  -0.02525   0.60561
Sb    2.84997   1.45804  17.97431   0.91651   1.34750  -1.03070
Ge   18.74653   1.52229   9.19347   1.40048  -0.54632  -0.70143
Ge   13.60496  10.26855   7.96283  -0.18434   0.42618   0.30332
Ge    7.63640  12.31709  16.17162   0.04390   0.18894  -1.92080
Ge   15.85970   8.74029  16.75065   0.87213  -0.84076   1.06263
Ge    1.68634   4.32148  18.61283  -0.04071  -0.37222   0.26334
Ge    2.97034  10.31878   8.34197   0.10152  -0.44705   0.15820
Ge   16.81195  19.25856  10.18845  -0.10647  -0.38736   0.63963
Ge   15.35787  16.57572   8.85258  -0.40391   0.07138   0.81409
Ge   17.08900   8.25605  20.02130  -1.24251  -0.85152   0.02536
Ge    8.27685   7.01359   9.03763   0.28685   0.39884   0.13791
Ge    2.52967  19.63758  12.93460  -0.75151  -0.13309  -0.67143
Sb   15.78706  19.37446   7.82614  -0.21313   0.72542  -0.51489
Sb   10.18961   5.37606  14.67435   0.68910   0.26319  -1.03280
Ge    7.49609  10.95775   3.73202  -0.74981  -0.02742   0.40890
Sb   19.15438  16.85688   4.53654   0.04225   0.49226   0.56913
Ge   16.47874   4.13437  19.66281  -1.01749   0.80819  -0.49977
Sb   11.81130  13.42898  11.21017  -0.08538   0.14333  -0.07656
Ge    4.98634   7.09887  17.76327   0.90569   1.18722   0.40946
Ge   17.99480  11.91696   3.93004   0.22042  -0.12747   0.06883
Ge    5.41942  15.60558  17.60953  -0.51343   0.31464  -0.04271
Ge   12.58356  16.72417  14.84039   0.27851  -0.04943  -0.50592
Ge   17.94712   1.16106  11.44087   0.89196  -0.14835   0.94481
Ge    4.01751   0.19530   1.71944  -0.20420  -0.12473   0.26132
Sb    8.85737  17.98922   4.18348  -0.09036   0.14615  -0.16574
Ge   16.42384   6.17873   5.64827  -1.08778  -3.76379   0.25157
Ge   12.58764  18.11785   3.73047  -1.67776  -0.21796  -0.59021
Ge    6.12279  14.56671   2.45762  -0.19000   1.19707   1.91002
Ge    7.68165   7.88150  17.03196  -2.18591   0.45486   0.59090
Ge   14.76417  15.79408   4.13128   0.11082  -2.22244   0.29414
Sb    1.23731  10.88402  10.93629  -0.48575   0.24023   0.84603
Ge   15.11956  13.24916   2.77936  -0.02534   0.02788   0.12466
Ge    7.16670   5.78343   2.69439  -0.82455   1.27388  -0.51725
Ge    8.88243  10.02203  18.04022   0.52832  -1.40088   0.31475
Ge   10.93508  18.28551  15.90937  -1.62888   0.27699   0.32852
Ge    8.23842  13.38674  11.66995   0.69206  -0.55584  -0.24761
Ge   17.80601   0.47078  16.19122   0.86556  -0.43274  -0.66995
Ge    0.50394   6.24840  11.62792  -0.58933  -0.30114   0.86525
Ge    0.25920   8.72647  12.50645  -0.49360   0.48120  -0.02328
Ge    1.82120  18.69614   1.19048   0.51683   0.59662   1.12532
Ge   14.65593  17.16081   2.22442   0.39487   1.12454   0.18795
Sb   18.11899  15.96666   9.21437   0.84458  -0.72686   2.76277
Ge   13.06430  18.33848   6.43068  -1.73876   0.50275   1.22452
Ge    0.24509  16.83571   7.90436  -0.31587   1.03092   0.34796
Ge    5.96108  13.54132   0.36994  -0.35499  -0.72566  -1.57181
Ge    1.59954  15.52882   6.33974   0.19410  -1.02570  -0.45250
Ge   17.30457  11.69683  16.73080   0.43217  -0.00597   0.09403
Ge    8.95308   8.27471   3.06069  -0.32402  -1.24788  -0.34727
Sb   12.97170   1.07811   4.37188  -0.75786  -0.55573   1.20887
Ge   14.29832   6.52285   1.48626   0.02753  -1.18815  -0.32608
Ge   18.31359  11.59185  10.87524   0.62735  -0.44001   0.58958
Sb   13.42173   3.94765   0.88540  -0.12199  -0.50185  -0.30946
Sb   18.59006   4.99190   6.65740   0.27537  -0.95362   0.42717
Sb   10.99522  18.41959  13.12151   0.16726  -0.42051  -0.75224
Ge   14.36658  12.17555  13.98500   0.53883   1.30476  -0.25397
Ge    9.47359   2.85923   0.63119  -0.14971  -0.33070   0.31264
Ge    5.75991   6.12912  10.81103   0.42075   0.07654   0.10013
Ge   17.25575  10.65631   8.75723   0.10379   0.33434  -0.09348
Ge   12.15050  13.35839   7.85731   0.22068  -0.50155   0.57149
Ge   15.97651  16.58107   0.29590   0.42644  -0.59878  -0.80510
Ge    4.86814  18.17634   9.29093   0.05581   0.71264  -0.28849
Sb   11.90675   3.41512  13.06000  -1.03171  -0.66145  -0.73887
Sb    3.74950   0.54672   4.83271  -0.50574  -0.03512   0.00417
Ge   17.32695  17.45082  18.64308   0.42759   0.01644  -0.11158
Ge   14.11904  13.15609   5.66143   0.09668  -0.28374  -0.11998
Ge    4.29897   0.42715  14.14146   0.68740   0.93338   0.43905
Ge   12.89037   0.84727   1.73465  -0.14777  -0.06341  -1.30296
Ge   14.16652  15.27632  10.88506   0.59419   0.12175   0.53665
Ge    8.67989   0.51444  19.58907  -0.37415  -0.09736   0.05963
Te   19.66848  10.13300   0.54388   0.55605   0.37275   0.34257
Te   15.50250  16.34273  14.09509   0.20507   0.31120  -0.35185
Te    4.72133   4.87790   7.43159  -0.16848  -0.67857   0.17931
Te    4.34406  12.86178  15.39516  -0.38146   0.11994  -0.58154
Te   18.98766   4.05812  15.71609   0.34763  -0.50296  -0.16893
Te    8.56653   9.81813  15.29875   0.34761   0.31547  -1.03336
Te   19.95125  13.16955  17.55690  -0.27401  -0.01632   0.57978
Te    7.65888  15.29749  13.65060  -0.11924  -0.00241  -0.39707
Te    5.84467   8.18123   8.57335  -0.55628  -1.43516  -1.38838
Te    6.27336  18.48586   2.51986  -0.20847   0.80215   0.41127
Ge   16.56633   4.98637  13.81274  -0.46008   0.97866   1.43853
Te    3.59250   6.87672   0.39184  -0.45074   0.22116   0.08375
Te    7.04513   8.76852   0.44591  -0.55355  -1.22574   0.25520
Te    8.26880  18.66137  11.68479  -0.12169  -0.17105   1.32863
Ge    1.97507   2.93469   3.62245   1.27051  -2.93524  -1.14332
Te   14.39238  11.19103  16.85408  -0.68711   0.83161   1.36494
Ge    2.64280  18.95350  10.31231  -0.77886   0.16918   0.08879
Te   13.99576   5.64623  12.10133   0.70027   0.06773   0.41931
Te    5.18059   3.52712   4.11725  -0.19601   0.04857  -0.24110
Te    2.16175  14.82290  11.53918  -1.89038  -4.82971  -0.71221
Te    3.33440  16.16486   4.41312   0.01922  -0.41420  -0.60314
Ge   16.57672  19.47588   2.77189   0.00852   0.18371  -0.73902
Te    0.18106  20.02944   7.93428   0.14455  -0.31874  -0.49336
Te    7.94486   9.43295   5.96584   0.88120   0.51729   0.87231
Te    5.24054  16.20781  11.16606   1.48091  -0.19855   0.30896
Te    0.17701   4.31575   1.45912  -0.61622  -1.51718   0.65432
Te    1.63404  13.16547   0.57416  -0.35029  -0.40166   0.33835
Ge   13.19262  10.96830   3.78409   0.39353  -0.06070  -0.04187
Te    8.02071  17.94534  17.89115   0.07326  -0.10907   0.17704
Te    8.43181  11.43806   9.03250   0.41045   0.24480   0.24988
Te   18.68887  18.52232   0.85543  -0.44236   0.92857   0.05026
Te   11.24320   8.17944  14.23033   0.23163   0.33493  -0.43048
Te    6.54829  13.90408   9.64462  -0.09688   0.15025  -0.55063
Te   20.27878  16.37329  12.59234  -0.99697   0.81581  -0.15193
Te   10.04946  13.56842  16.07288  -0.09725   0.42757  -0.55473
Ge    9.94642  15.57986   3.14267   0.89309  -0.15417  -0.10227
Ge   17.82872   5.48243  10.01075   0.76467  -0.49071   0.34903
Te    1.61475  10.89193   4.51924   0.17674  -0.13214   0.37894
Ge    7.77937  15.93151   0.49436  -0.19569   0.50712   1.05582
Te   11.33680  16.30947  18.17031   0.11988  -0.28360   0.73703
Te    3.29461  12.27121  18.32688   0.23737  -0.46851  -0.24648
Te    9.11464  16.31407   7.00584   0.43190  -0.65264   0.08521
Te   13.80533  14.59086  15.75536   0.09884  -0.59793   0.77936
Te   14.95948   0.37696  11.64456  -1.61637  -0.67360  -0.99752
Te    6.12413   6.67979  14.80989   0.48299  -0.60290  -0.89958
Te    7.37107   0.94727  16.71842  -0.06336  -0.05599   0.75882
Ge    6.46285   2.09102  13.51481  -0.22036  -1.02828  -0.50195
Te    6.49253  17.92621   6.26837  -0.45008   0.13868  -0.73216
Te   11.71387   9.86008   5.92533  -0.13745   0.05474  -0.09457
Ge   16.88601  11.26565   6.30104  -0.01608  -0.06491  -0.49083
Te   14.58395   2.79340   7.28457   0.41033  -0.34014   0.13488
Te    8.23019   4.76843   6.26379   0.45291   0.14467   0.14732
Te    3.46447   3.02478   0.94670   0.06390  -0.13936  -0.08434
Te   17.81727  13.59016  12.76880  -0.01102  -0.41903   0.28377
Ge   14.91294   3.38515  10.57875  -0.18131  -0.21755  -0.03011
Te    0.30649  16.28358   1.00205   0.33930  -0.54572   0.34350