   300
config_type=liqu Lattice="   20.31669   0.00000   0.00000   0.00000  20.31669   0.00000   0.00000   0.00000  20.31669"  Properties=species:S:1:pos:R:3:forces:R:3 energy=-40155.1380 pbc="T T T"
Ge    1.29464   2.73771  19.69425  -0.17715  -0.00715  -0.11064
Ge    7.22898   3.82759  12.20702  -0.27061  -0.28984  -0.30935
Ge    9.28235  14.33945   8.79122  -0.43892  -0.73613   0.47338
Ge   20.17565   0.07837  18.56585   0.01836   0.01079   0.34786
Ge    9.81999  20.02895   1.40848   0.22678   0.25605  -0.34327
Ge    7.62572   2.85692   8.42045  -0.03015  -0.37967   0.34573
Ge   12.93040   4.11044  17.17482   0.02597   0.05048   0.25683
Ge    8.87182  13.00431  19.16313  81.17303 -70.09878  84.14558
Ge    1.78958   2.18148  18.00739   0.07579  -0.19401   0.41992
Sb   17.31419   1.13047  19.92970  44.44850 -25.86840 -96.88006
Sb    2.02059   4.72910  14.90383   0.17103  -1.01220  -0.21445
Ge    0.51324  18.72867  19.49216  -0.04584  -0.02906   1.47691
Ge   11.58757  14.81642   2.76297   0.25181   0.22533   0.34167
Ge   10.73240  19.14975   9.53963  -0.00342  -0.42309   0.15829
Ge    5.63572   4.77202   0.02794   0.29597   0.10991  -0.64828
Sb   18.79227   6.13723   1.05212   0.18625   0.66533   0.13292
Sb    1.98256   4.93218   2.57024  -0.25653   0.18327  -0.00540
Sb   11.04964   6.03724   1.50440  -0.02861  -0.40756   0.20114
Ge   10.63396   1.37908   7.22239  -0.07681  -0.06549  -0.19097
Ge    6.49461  11.74270  13.10054  -0.07285   0.15573  -0.12287
Ge   11.33625   2.49927  20.27335  -1.12562   0.14394  -0.68473
Ge   14.04246   7.80789   9.22502  -0.11534   0.22680  -0.69111
Ge   15.36278  12.63070  11.39817   0.31833  -0.52098  -0.05539
Ge   19.27802   6.10376  13.94774  -0.69370   0.38391  -0.67225
Sb    0.33738  12.67047   8.42554  -0.20630   0.39503   0.42886
Ge   15.78653   9.04696   7.24137  -0.03309  -0.02443   0.42667
Sb   16.75697   1.32286  14.30841  -0.09714   0.18817  -0.02223
Ge   19.27076   8.28476   9.61511   0.57758   0.13323  -0.08815
Ge   12.97809   1.43411  17.46617  -0.07736   0.05107   0.07783
Sb   18.71497  17.73541  15.29066   0.01865   0.52182   0.15075
Ge    0.72802  10.85998   6.31316   0.35039  -0.06344   0.18913
Ge   11.64028   2.85310  10.04402  -0.05788   0.04268  -0.40737
Ge    3.11470  13.76362   0.52588  -1.13604   0.83215   0.09980
Ge   10.43095  10.98576   0.04799   0.29150  -0.03328   0.43167
Sb   11.97598  15.98212   6.38161 -12.95471  46.00720  51.22807
Te   10.84978   8.17486   0.48916  -0.60221   0.64775   0.00141
Sb   10.71991   9.36893   8.95006  -0.61270   0.04688  -0.05611
Sb    4.39334   1.25516  17.99249  -0.00287   1.07058   0.35060
Ge   18.09839   0.52197   8.44134   0.00665  -0.12062   0.60542
Ge   13.36795  10.69749   8.30358   0.35637  -0.56888  -0.38566
Ge    7.12963  12.49968  15.64139   0.13319  -0.25413  -0.06071
Ge   16.38254   8.47732  17.58396   0.40682  -0.28673  -0.14588
Ge    2.03294   5.39322  19.61869   0.28191   0.09191   0.49887
Ge    2.28353  10.53653   7.47705  -0.15872  -0.41641   0.63423
Ge   17.08619  19.03907  10.90304  -0.19604   0.01016  -0.25488
Ge   15.28696  16.86506   8.92396  -0.97650   0.03834  -0.05811
Ge   16.25062   7.57268   0.15446   0.53987  -0.20060   0.04198
Ge    8.14238   7.67602   8.68056  -0.34387  -0.58117   0.05622
Ge    1.41205   0.74614  13.05442  -0.27296   0.12408  -0.58877
Sb   16.20198  20.07636   8.11149  -0.12404  -0.33349  -0.46925
Sb    9.85652   5.39630  14.63659  -0.37439   0.05108   0.30700
Ge    7.14926  10.81457   4.33232 -11.17165  -5.04588  35.03558
Sb    0.75155  18.67323   4.05737   0.47521  -0.01117   0.15961
Ge   15.83823   3.73219  19.38750  -0.30845   0.19142  -0.13700
Sb   11.72557  13.57469  11.18940  -0.27739   0.21927  -0.11959
Ge    4.94407   7.86584  18.87557  -0.07984   0.09656   0.17015
Ge   18.96644  11.64280   3.48839   0.00907   0.20997   0.12949
Ge    5.20515  15.74882  18.24705   0.05736  -0.12028  -0.14529
Ge   12.58911  16.79792  14.55571   0.07066  -0.00125   0.12635
Ge    0.00952   1.05031  11.54775  -0.34162   0.26408  -1.17746
Ge    2.58939   0.04167   2.28108  -0.32088   0.06722   0.04202
Sb    8.32831  18.53601   3.51179  -0.20541  -0.19964  -0.18529
Ge   16.86944   5.23628   5.21538   0.65170  -0.09209  -0.21366
Ge   11.47335  17.90724   3.41980  -0.23756  -0.16822   0.32073
Ge    6.33488  14.81522   2.89759  -0.42059  -0.14951  -0.16829
Ge    7.87245   7.65580  17.91258  -0.34078  -0.13311  -0.68515
Ge   14.38052  15.18331   3.75590   0.06472   0.23542  -0.37888
Sb    1.52161  11.36593  11.02448  -0.28915   0.24137  -0.03851
Ge   15.00358  13.25817   1.20436   0.43736   0.25498   0.69275
Ge    6.23769   5.55335   2.03222   0.35960   0.28355  -0.63641
Ge    9.24539   9.60194  18.81737  -0.14005   0.15702   0.93708
Ge   10.19166  18.18077  16.16597  -0.06628   0.45057   0.87562
Ge    8.91085  12.88931  11.90411   0.24484   0.10817   0.17312
Ge   18.75969   0.73892  16.30653   0.10852  -0.73151   0.19785
Ge    0.88752   4.68569  12.71018  -5.91854 -27.04628  48.78960
Ge    0.42959   9.21044  11.80231   0.04889  -0.02924   0.32183
Ge    1.42529  19.09487   0.82298  -0.15177  -0.51131   0.25992
Ge   15.30928  18.04370   2.47224  -0.13554   0.41500  -0.01213
Sb   19.90982  15.03818   9.65991   0.41935   0.52279  -0.59242
Ge   12.60324  19.10814   7.19873  -0.10272   0.29687  -0.23572
Ge    0.60758  17.19891   8.09728  -0.16161   0.06550  -0.29783
Ge    6.26218  14.17094  19.96908   0.44189   0.64751   0.11955
Ge    0.90989  15.40648   6.80673  -0.13242   0.05872   0.13268
Ge   18.02282  11.56517  17.92321  -0.16079   0.04535   0.27285
Ge    8.64210   8.03066   2.51321  -0.17736  -0.86457   0.22503
Sb   13.11536   1.29607   4.71733   0.54902  -0.89971   0.26495
Ge   15.18402   6.17732   1.08380  -0.41979   0.22480  -0.39968
Ge   19.45341  12.30303  10.20242   0.14246   0.13808   0.25862
Sb   13.85483   3.09227   0.30724   0.20752  -0.71846   0.07089
Sb   19.50476   4.05984   6.27626   0.05004   0.56011   0.52303
Sb   10.38210  18.67016  13.25504 -81.94275  68.76482 -84.04274
Ge   14.41598  12.67593  14.15680  -0.27788   0.69839   0.41637
Ge    9.03153   3.61031   0.41723   0.40175  -0.34063  -0.22107
Ge    5.96031   6.14617   9.49829  -0.40031  -0.07233   0.37058
Ge   17.05664  10.93926   8.90326  -0.63670   0.19697   0.31330
Ge   12.07447  13.46779   7.93110  -0.21478   0.40080  -0.11291
Ge   17.07018  16.16393   0.00729   0.58440  -0.59632   1.09441
Ge    4.36385  18.87973   8.58195  -0.61296   0.04834  -0.13848
Sb   11.79724   3.60699  13.00284   0.02592   0.22881   1.07434
Sb    3.68716   0.70545   4.50844   0.31543   0.65042  -0.19908
Ge   18.19951  19.15255  17.88449   1.93244  -0.44797   2.16886
Ge   13.81220  12.61960   5.13197   0.15705   0.17116   0.03469
Ge    3.57901   0.87278  14.99370  -0.10842  -0.40503  -1.05751
Ge   11.98707   0.78041   0.97881   0.70691   0.17016   0.15043
Ge   14.17060  15.06090  10.84612   0.38828   0.50203   0.29302
Ge    8.45570   0.66640   0.68062   0.46327  -0.03017  -0.36399
Te    0.33198  10.04306   1.08464   0.29162   0.56468  -0.41331
Te   16.30530  16.62434  14.35264-124.53353  40.16263  95.25343
Te    3.85850   3.29627   7.33324  -0.54153   0.43345   0.16122
Te    4.66031  13.31720  15.02608   0.93029   0.34957  -0.03623
Te   18.65819   2.81534  16.40631   0.33804  -0.66425   0.22376
Te    8.96103  10.13323  15.09159  -0.07284  -0.49807   1.10507
Te    0.00582  13.03332  17.92337  -0.01037  -0.62370   0.68741
Te    7.58900  15.63118  13.62084   0.00260  -0.51413  -0.68236
Te    4.80997   7.61436   7.05717  -0.24806   0.42513  -0.09636
Te    5.90101  19.63323   1.96521   0.03318  -0.22395  -0.14246
Ge   16.29192   5.27394  13.24673   0.16220  -0.15327   0.18720
Te    3.18646   6.73640   0.66565   0.18517   0.51309  -0.17451
Te    5.93839   8.10863   1.12007   0.28490   0.58219  -0.31933
Te    7.51529  19.39258  12.40734   0.34036  -0.32076   0.15203
Ge    1.35888   1.72744   2.91276  -0.45493   0.24754   0.15333
Te   14.48648  11.73654  17.68122   0.01896   0.45772   0.02168
Ge    1.82198  19.95560  10.59349 -42.08661  51.64025  25.76840
Te   13.77837   5.57369  12.26744  -0.28319   0.31991   0.10347
Te    5.09178   3.25766   2.83185  -0.87528  -0.67262  -0.03336
Te    1.13406  14.24456  10.86521   0.75328  -0.77490   0.00958
Te    1.75473  16.20307   4.00749  -0.17531   0.25326   0.87825
Ge   16.35120   0.19698   1.58649  -0.35248  -0.14232  -0.34938
Te    1.09457   0.36385   7.75700  -0.68259  -0.03961   0.50077
Te    7.36100   9.25063   6.36801   0.18539  -0.90388  -0.25182
Te    5.96984  16.78283  11.40751   0.44501   0.29277   0.08719
Te    1.02357   3.95078   1.50712   0.30770   0.59900   0.24773
Te    0.79610  12.81968   0.78074  -0.22299   0.12678  -0.67279
Ge   13.17445  11.12987   2.85176   0.15083   0.18904  -0.06397
Te    8.28828  19.04476  18.40004   0.48463  -0.48292  -0.19229
Te    8.64823  11.55255   8.91548   0.45537  -0.57658  -0.27528
Te   18.79782  19.43908   0.04828   0.17392  -0.49529  -0.26247
Te   11.16670   8.06244  14.15900   0.11018   0.08651  -0.32470
Te    6.40044  13.68794   9.82423   0.06570   0.03294   0.29264
Te   20.17837  16.66429  12.66271  -1.10810  -0.05106   0.58932
Te   10.17031  13.55962  16.42057   0.19459  -1.30567   0.67551
Ge    9.73171  16.53757   2.06786  -0.44542   0.59971  -0.02857
Ge   19.25388   4.69484   9.67920  -0.10821  -0.40815  -0.20807
Te    1.28683  10.27209   3.30883 124.99230 -40.29780 -96.28904
Ge    7.84377  16.07027   1.04740   0.39822  -0.11214   0.44238
Te   10.95909  16.35114  18.73074  -0.08234   0.27010  -0.45816
Te    2.35756  11.25620  18.04244  -0.93951   0.81391   0.69053
Te    9.30269  16.69446   7.06291  10.66688   5.66717 -34.85545
Te   13.78861  14.43257  16.37389  -0.09700   0.43648  -0.11117
Te   14.42495   0.18465  11.35018   0.08254   0.07467  -0.48240
Te    6.33127   6.64657  14.59290   0.58619  -0.42836   0.23286
Te    6.99323   0.24480  17.68548  -0.61599   0.10662  -0.54429
Ge    6.74515   0.85081  12.99250  -0.53250   0.05694   0.18063
Te    5.53896  18.54131   6.03470  -0.10277   0.14904   0.26019
Te   11.48450   9.70405   5.87030  -0.68777   0.30952  -0.64992
Ge   18.01237  11.19089   6.09960   0.34087  -0.16392   0.15694
Te   14.54458   2.10495   7.62110   0.21136   0.25104  -0.40247
Te    8.43654   4.71969   6.32038  -0.19565  -0.06668  -0.31687
Te    3.44230   2.41470   0.40596  -0.16409   0.25688  -0.79200
Te   18.35848  13.81061  12.71428   0.58800  -0.03609   0.38874
Ge   14.39534   2.98194  10.31207  -0.63382   0.37025  -0.20684
Te    0.34262  16.51584   1.13450  -0.13582  -0.07422  -0.76966
Ge    5.25426  12.04768  18.22520  -0.28002  -0.33282   0.14481
Te    3.95351  12.77717  12.29257  -0.69590  -0.55277  -0.38478
Te    2.15776   8.71707  19.57257   0.42657   0.50215   0.29401
Te   13.13845   9.55082  12.31859   0.14241  -0.27760   0.43443
Ge   16.11847   2.93640  17.16704  -0.03553  -0.03544  -0.51507
Te    8.78533  13.77512   1.43665  -0.50078  -0.78968   0.29925
Te    0.18639   7.66357   3.09907  -0.49453  -0.19191   0.84516
Te   18.50782  14.03040   6.97667  -0.09774  -0.17329  -0.14983
Te   13.25070   6.84029  17.16430   0.41282   0.32229   0.24984
Te    0.41068  12.14197  14.07210   1.05619  -0.64352  -0.00830
Te    0.74444  17.06422  15.50281  -0.56227  -1.11611   0.04827
Te    4.91768   9.27768   2.79486   0.09729  -0.97179  -0.12702
Te    8.43909   8.39355  11.72643   0.34832   1.09733   0.57241
Te    8.39742   5.46835  19.93438  -0.19450   0.92291  -0.27397
Te   19.46580   2.19071   4.42654 177.38358 -39.96430 -65.33278
Ge   12.32210   4.96275  20.15916  -0.48394   0.03350   0.29526
Ge    3.61574  14.22435   7.97113   0.36786  -0.02596   0.18529
Ge    9.69365   1.21946  17.37068   0.04161   0.16282   0.21153
Ge    1.80407   2.18103   6.36426  -0.12542   0.20984  -0.62491
Ge    4.95266  18.84912  18.81473  -0.69265  -0.40253  -0.72890
Ge   10.88101   6.14403   6.85898   0.23014   0.08966   0.51229
Ge   18.55282  14.46639   3.28838  -0.34138  -0.03447   0.05984
Ge    5.34199   3.14734  10.08793   0.39575   0.26239   0.09110
Ge    1.44819  18.78921  17.45513  -0.07446   0.25726  -0.41330
Te    1.01509  10.55987  15.98364   0.84019  -0.18389   0.16082
Ge    3.56455   8.38757  16.28480  -0.45040  -0.04090   0.15244
Ge    0.95908   1.19270   9.85787  41.60730 -51.57274 -24.82551
Ge   14.50112   9.25309   3.64748  -0.01957   0.57715   0.72280
Ge   18.02522   8.30514  12.05195   0.21800  -0.44991   0.19117
Ge   17.32908  10.00394  14.17594  -0.11133  -0.22750   0.34462
Ge   16.18960   6.12902   8.65356 -88.15335 -76.39352 -59.31527
Ge   11.92149  11.76794  18.92856  -0.02745  -0.19404   0.42164
Ge   11.99014   3.39461   5.02985  -0.01720   0.44798  -0.90954
Ge    1.82291  14.93199  17.62321   5.98852  26.90016 -48.55321
Ge    7.11291  20.23132  15.30315   0.23066   0.78284   0.34399
Ge   10.31457   7.48534   4.76280   0.22727  -0.19437  -0.79911
Ge   15.38629  16.90062   5.81003  -0.04033  -0.40128  -0.57619
Ge   17.93138   2.36260   1.06708  -0.15208   0.12200  -0.10198
Ge    0.88803   2.61460  12.77305   0.19792   0.03296   0.14491
Ge    0.89583   8.29965   9.14547  -0.26290  -0.06304  -0.38355
Ge   18.92158   9.02893  16.52817   0.28172  -0.04188   0.07361
Ge    9.70803  18.10677   0.81536   0.26843  -0.18600   0.18254
Ge   13.94297   8.81660  18.80027  11.45746 -46.13326 -52.81902
Ge    3.18419  15.62738  15.63879  -0.11684   0.05664   0.10163
Ge    4.01390   3.88440  18.18138   0.20077   0.26738   0.19486
Ge    4.31127  19.47223  16.03228   0.28010  -0.12249   0.20045
Ge   14.92233   4.50722   3.31198   0.15294   0.54538   0.57640
Ge    0.09994   2.91414   8.60078   0.00094  -0.28844  -0.03967
Ge   13.16777  18.63510  17.78353  -0.53218  -0.15393   0.05170
Ge    8.31016   3.09279  14.57530   0.25657  -1.12819   0.21782
Ge   18.79844  12.34279   1.03807  -0.09626  -0.37657  -0.22032
Ge   17.11586   9.53605   3.04779   0.01309   0.18361  -0.19162
Ge    0.75001  18.29386  10.74352   0.48598  -0.50507  -0.57221
Ge    0.82047   5.40161   9.07462   0.04581  -0.03820  -0.19327
Ge   14.40488   3.13701  14.94950  -0.08413  -0.02715   0.16961
Ge   14.92367   8.99817  15.13333  -0.14673   0.34305  -0.03813
Ge   19.28114   8.45600   5.94798  -0.18453   0.38037  -0.26002
Ge   15.71612   1.03442  17.14023   0.29390  -0.55793   0.12731
Ge   17.63891   0.42929   3.53402   0.37325   0.31773   0.12601
Ge    5.44725  10.29078   8.35717  -0.22535   0.23857  -0.08809
Ge   18.11885  16.56966   5.87693  -0.34763   0.32015  -0.07123
Ge   13.21262   6.89124   4.42601  -0.35871   0.23537  -0.77043
Ge    3.30908   0.90659  11.13567   0.26651  -0.19887  -0.57665
Ge    3.05059  17.04222  19.75922   0.01542   0.30313  -0.30407
Ge    6.57696   6.47854   4.93250   0.35217  -0.34101   0.62719
Ge   16.74334  10.54131   0.33139   0.36689   0.40425   0.05568
Ge   19.68491  10.01626  19.65827   0.13236   0.36415  -0.11045
Ge    7.04189   2.64116  19.08597   0.12088   0.20904   0.43780
Sb    5.97142   2.05947   5.83953   0.16753  -0.50795   0.26665
Sb   13.65354  19.02154   0.30639   0.07819   0.30734   0.71829
Ge   15.32809   1.95533   3.63065   0.13050  -0.03956   0.26752
Ge    1.30477   7.56839  15.80154   0.09872  -0.44526   0.59825
Ge    8.14402  15.66535  18.31273  -0.32170  -0.38042  -0.16611
Ge   19.07074  14.93439  16.44271   0.47238   0.13896  -1.01398
Ge    3.22565   4.77074  10.79170   0.08555   0.00982  -0.50785
Ge   10.63211  10.72609   3.27568  -0.01700   0.21944  -0.50309
Ge    6.30122   9.09394  13.20220   0.15201   0.03946  -0.12367
Sb    0.18799   7.20810   0.64199 -44.14454  26.23539  96.41335
Ge    3.85829   3.40982  13.25559  -0.10485  -0.25272   0.55822
Sb   10.28246  19.83563   5.47039  -0.74511   0.36382  -0.27803
Ge   14.90993  19.61298   4.84866  -0.05691   0.41927   0.29423
Sb    3.90525   1.09373   7.64147  -0.15803  -0.06824  -0.51528
Ge   11.71297   0.86289  11.87003   0.32901  -0.09960   0.25401
Ge   20.28799   7.46793  18.27137   0.31697  -0.31466   0.04966
Ge   14.27031  11.06128  20.10307  -0.10213  -0.19417   0.24179
Ge   17.71415   5.63919  18.66438   0.41082   0.10890   0.01481
Ge   10.25139  10.61472  11.14533   0.21260  -0.80987   0.11112
Ge    3.74239   6.63433  13.50153   0.56393   0.31575   0.35302
Ge    0.83513   0.10924   2.30790   0.29943   0.34228   0.16687
Sb    0.76055   7.73509   6.60024   0.06416   0.44622   0.21195
Ge    0.64537  14.08753   2.39822   0.25540  -0.15308  -0.02105
Ge    5.82149   0.53085   0.26968  -0.20075   0.08698  -0.21432
Ge    9.48372   4.17560   3.64536   0.16747   0.13740  -0.11169
Ge    6.40912   1.22979  10.46717   0.00399   0.04328   0.16620
Ge   11.19919  14.28402   0.85692  -0.40506  -0.38095   0.06510
Sb   12.65566   0.18175   8.79622   0.24191   0.23809  -0.93525
Ge    2.55252  17.68334  12.93753   0.13609  -0.15907  -0.13390
Ge   13.96028   5.05992   6.83196   0.49599  -0.51268  -0.27067
Ge    2.47715  12.65466   5.62423  -0.22173  -0.18655  -0.38560
Ge   19.95188   3.75158  19.55608   0.13558   0.39602   0.05626
Ge    0.83986   1.19263   5.03990   0.68672   1.32918  -0.56423
Sb   10.67592  14.87290  13.63553   0.61092   0.46057  -0.19940
Ge   11.67363  15.87954   9.07895   0.47511  -0.21624   0.17959
Ge    5.69761  17.05332  15.72104  -0.19774   0.04963  -0.06823
Ge   10.24852   5.25207   9.36716  -0.08042   0.20179  -1.19305
Ge   18.93681  14.62013  19.98914  -0.37530   0.00602   0.36203
Ge   19.90699  20.14100  14.18757  -0.49116  -0.16431  -0.41092
Ge    5.51495  17.10112   0.28606   0.63512  -0.31548  -0.28103
Ge    3.40454   6.35880   4.78105  -0.13695   0.46505  -0.13831
Ge    9.23250   3.79109  17.29364   0.49942  -0.14916   0.00520
Ge   20.09796   1.03330   0.55897   0.43610  -0.55788  -0.32572
Ge    2.71441   9.04049   5.09623  -0.17710  -0.36658  -0.59400
Sb   10.57241   6.42289  17.98654  -0.05169  -0.31583   0.12526
Ge    9.46972   1.29377   4.01393   0.16575   0.38807  -0.20115
Ge    0.43908  13.25925   4.90956  -0.36766  -0.23614  -0.62910
Ge    6.56511  11.09855   0.22218   0.22466   0.26875  -0.59692
Ge    4.81356  11.38859   5.03676  -0.02196  -0.20231   0.11587
Ge   17.31557   3.19161   7.53323  -0.23126   0.17326   0.58134
Sb   15.96912  13.16461  19.83827   0.63905   0.10419   0.70526
Ge    2.87683  10.10509  13.69917  -0.38729  -0.41823   0.50382
Ge    2.07083  17.15388   9.83269  -0.20709  -0.09192   0.42904
Ge   11.30071   9.52264  17.05460  -0.24549   0.36405  -0.60836
Sb    2.36758  19.00599   5.35062   0.11671  -0.02413  -0.34357
Ge   14.57507   0.45210   0.64680   0.04406   0.00575   0.04080
Sb   11.31175   7.48047  10.99188   0.08126  -0.79340  -0.18978
Ge    9.51995   0.76242  13.49783   0.01310  -0.02069   0.11061
Ge    0.77441   5.21185   4.31560  -0.12614   0.22652   0.32783
Ge    6.21066   3.17476  16.44994   0.09233   0.03524   0.17302
Sb    0.82733   0.76959  15.82036  -0.00061  -0.42087  -1.10779
Ge   12.76705  12.08162   1.27450   0.12728   0.00480  -0.19575
Ge   10.75922   0.27287  19.24389   0.36107   0.09480  -0.41598
Ge   13.63378  15.90822  20.01012 -89.20480 115.85966 125.01707
Ge   13.29068   9.20064   1.00469  -0.16642   0.10415   0.32912
Sb    7.64471  17.82906   8.90829   0.49870   0.68037  -0.26837
Sb    7.55418   1.79046   2.08108  -0.32452   0.24137   0.32122
Sb    3.38486  12.12372   1.79977  -0.30554   0.59519  -0.45918
Ge    3.75509   9.52620  10.64111  -0.43985   0.07809   0.58859
Ge   17.46827   3.54102  11.90909   0.27793   0.32678  -0.20894
   300
config_type=liqu Lattice="   20.31669   0.00000   0.00000   0.00000  20.31669   0.00000   0.00000   0.00000  20.31669"  Properties=species:S:1:pos:R:3:forces:R:3 energy=-40187.7195 pbc="T T T"
Ge    1.50184   2.25360  19.19271  -0.13854   0.02900  -0.11989
Ge    7.21229   3.80457  12.17728  -0.22626  -0.25556  -0.31456
Ge    9.34307  14.29597   8.81854  -0.44918  -0.74184   0.49221
Ge   20.23131   0.18702  18.49328   0.01946   0.00311   0.36575
Ge   10.01667  19.96645   1.57375   0.22510   0.26381  -0.36035
Ge    7.62921   2.83594   8.44649  -0.05008  -0.43070   0.37001
Ge   12.88755   4.06889  17.15381   0.02504   0.05444   0.23632
Ge    8.83346  13.02595  19.12443  70.95809 -60.49378  72.91087
Ge    1.84607   2.19444  17.75168   0.11836  -0.16618   0.42426
Sb   17.20435   1.02409  19.66793  40.23885 -23.22306 -87.95005
Sb    2.05134   4.72504  14.95780   0.17023  -1.03581  -0.23141
Ge    0.53633  18.58724  19.37413  -0.06480  -0.07167   1.45896
Ge   11.60920  14.85097   2.92550   0.28630   0.20561   0.39100
Ge   10.70131  19.17935   9.55386  -0.03153  -0.40820   0.14758
Ge    5.68025   4.77467  20.30343   0.29376   0.12383  -0.66013
Sb   18.56224   5.97049   1.12345   0.23608   0.66309   0.12334
Sb    2.22444   5.13594   2.76919  -0.27468   0.17972  -0.01490
Sb   11.05846   5.99286   1.55984  -0.01292  -0.41377   0.26072
Ge   10.61173   1.42834   7.25333  -0.01880  -0.11388  -0.20120
Ge    6.52228  11.73847  13.16203  -0.08537   0.14608  -0.15925
Ge   11.26219   2.57772  20.21641  -1.15067   0.11967  -0.71701
Ge   14.09037   7.81102   9.20425  -0.11447   0.25050  -0.75465
Ge   15.28326  12.62874  11.40792   0.34424  -0.55873  -0.05854
Ge   19.24147   6.13500  13.92326  -0.70277   0.46691  -0.61440
Sb    0.41361  12.68945   8.38986  -0.22307   0.32106   0.39843
Ge   15.80082   9.00365   7.26387  -0.09297  -0.01578   0.47908
Sb   16.75960   1.32450  14.30022  -0.12127   0.21739  -0.03665
Ge   19.05494   8.28119   9.67079   0.60267   0.08803  -0.05391
Ge   12.94379   1.43104  17.45382  -0.16561   0.08046   0.01525
Sb   18.66098  17.78313  15.31165   0.03186   0.50928   0.16737
Ge    0.57688  10.89403   6.25371   0.39350  -0.08476   0.22652
Ge   11.70056   2.89252  10.08056  -0.07618   0.01849  -0.35065
Ge    3.14427  13.88274   0.39615  -1.15349   0.81507   0.06610
Ge   10.45818  11.00990   0.06903   0.25342  -0.06248   0.42445
Sb   11.96207  15.95548   6.37667 -11.54219  41.46251  46.19761
Te   10.80450   8.24170   0.45840  -0.59005   0.67355   0.01216
Sb   10.71805   9.40643   8.94583  -0.60565   0.07010  -0.08181
Sb    4.37825   1.24562  17.98542  -0.00265   1.06730   0.31595
Ge   18.19732   0.57820   8.47535   0.06880  -0.11791   0.63057
Ge   13.37855  10.69423   8.25613   0.33125  -0.51917  -0.30753
Ge    7.13073  12.46585  15.63344   0.14117  -0.30723  -0.03408
Ge   16.36888   8.46245  17.57206   0.45692  -0.32450  -0.14302
Ge    2.00734   5.33422  19.52282   0.28999   0.13267   0.52662
Ge    2.37007  10.46528   7.56908  -0.13697  -0.46616   0.62234
Ge   17.07311  19.02637  10.86627  -0.19337   0.04661  -0.28256
Ge   15.30601  16.87520   8.86297  -0.95592   0.03392  -0.08945
Ge   16.37735   7.75874   0.05701   0.55497  -0.19977   0.06257
Ge    8.10141   7.66148   8.68064  -0.34698  -0.61890   0.08122
Ge    1.58136   0.54585  13.16501  -0.33210   0.14547  -0.58392
Sb   16.13734  20.03118   8.09607  -0.10406  -0.34100  -0.50346
Sb    9.88621   5.37052  14.66412  -0.37569   0.09261   0.32181
Ge    7.17386  10.88052   4.34441 -10.40346  -4.65327  32.43401
Sb    0.60179  18.63435   3.97908   0.46501  -0.01922   0.14912
Ge   15.82790   3.75067  19.33142  -0.26104   0.16892  -0.14978
Sb   11.71258  13.55296  11.18269  -0.28277   0.20739  -0.12005
Ge    4.98661   7.85927  18.84267  -0.08254   0.12661   0.20017
Ge   19.00462  11.62890   3.53949   0.01243   0.20917   0.14160
Ge    5.20866  15.74734  18.27582  -0.01247  -0.13454  -0.15614
Ge   12.60045  16.78236  14.54927   0.04655   0.01925   0.12564
Ge   20.10657   1.04514  11.60222  -0.38064   0.26907  -1.22025
Ge    2.93474  20.26767   2.27615  -0.29083   0.08957   0.04775
Sb    8.32406  18.53523   3.51092  -0.21928  -0.19496  -0.19125
Ge   16.89328   5.21196   5.24707   0.64627  -0.07642  -0.16094
Ge   11.45419  17.93382   3.38384  -0.21816  -0.13028   0.37821
Ge    6.33805  14.78999   2.92623  -0.44477  -0.15983  -0.16978
Ge    7.84592   7.68022  17.94364  -0.35483  -0.14009  -0.76584
Ge   14.41444  15.20130   3.80565   0.05624   0.26847  -0.40557
Sb    1.54702  11.36701  11.02384  -0.29304   0.22886  -0.03900
Ge   14.82990  13.30472   1.51060   0.45275   0.27396   0.72725
Ge    6.28079   5.59123   2.14999   0.36757   0.30726  -0.66319
Ge    9.23032   9.56797  18.78432  -0.13382   0.12360   0.97809
Ge   10.22013  18.13059  16.18535  -0.06589   0.45755   0.88159
Ge    8.88320  12.93225  11.87847   0.22671   0.09063   0.17381
Ge   18.71166   0.44901  16.29105   0.12137  -0.75832   0.16657
Ge    0.84559   4.70168  12.66417  -5.25959 -24.34119  43.91264
Ge    0.39076   9.14048  11.87267   0.06372  -0.06085   0.34567
Ge    1.52889  19.02402   0.83566  -0.13870  -0.55593   0.24913
Ge   15.32125  18.02721   2.44558  -0.16033   0.40075   0.01630
Sb   19.74627  15.17847   9.53251   0.39923   0.50655  -0.52875
Ge   12.58716  19.03886   7.15720  -0.07768   0.34498  -0.24128
Ge    0.52001  17.24439   8.05129  -0.19122   0.11227  -0.32078
Ge    6.25031  14.10750  19.96794   0.45395   0.69379   0.11313
Ge    0.90599  15.40664   6.80268  -0.15063   0.07108   0.14037
Ge   17.98545  11.53400  17.90836  -0.15799   0.08155   0.30095
Ge    8.63731   8.04773   2.55091  -0.18955  -0.87236   0.23314
Sb   13.11119   1.30961   4.70878   0.56527  -0.91200   0.25959
Ge   15.09594   6.01496   1.19550  -0.43016   0.25118  -0.40508
Ge   19.40844  12.29475  10.26265   0.17032   0.12417   0.31895
Sb   13.85937   3.09627   0.31929   0.20673  -0.73996   0.07337
Sb   19.48590   4.08304   6.26248   0.06290   0.62425   0.55294
Sb   10.40320  18.66063  13.25627 -71.56130  59.39691 -72.82290
Ge   14.40719  12.67295  14.09775  -0.29481   0.64882   0.39222
Ge    9.06652   3.50570   0.44694   0.40933  -0.40107  -0.20255
Ge    5.92874   6.15161   9.53715  -0.45332  -0.06662   0.43222
Ge   17.07144  10.94275   8.89516  -0.57884   0.17588   0.34934
Ge   12.09962  13.47733   7.88339  -0.24658   0.44493  -0.12033
Ge   17.06973  16.18921  20.30116   0.62016  -0.63604   1.10979
Ge    4.37289  18.88424   8.58806  -0.53266   0.05855  -0.10706
Sb   11.79556   3.58507  13.00932   0.01746   0.19911   1.10666
Sb    3.69358   0.70320   4.49294   0.35852   0.69357  -0.24957
Ge   18.19655  19.10761  17.83400   1.78998  -0.41004   2.00680
Ge   13.81769  12.59420   5.11846   0.13288   0.18831   0.03155
Ge    3.57964   0.91325  14.95513  -0.11820  -0.38208  -1.06998
Ge   12.08880   0.75731   1.05211   0.73869   0.17754   0.18539
Ge   14.12434  15.07509  10.88518   0.39804   0.53236   0.29779
Ge    8.46237   0.57228   0.41393   0.46837  -0.03001  -0.36412
Te    0.34625  10.06398   1.17311   0.31441   0.58279  -0.41658
Te   16.29951  16.62360  14.36728-107.22854  34.77978  82.00303
Te    3.88818   3.41014   7.35279  -0.59492   0.43356   0.16092
Te    4.67832  13.28884  15.02144   1.01095   0.38608  -0.06677
Te   18.68531   3.01913  16.43167   0.32056  -0.67951   0.22366
Te    8.89950  10.11753  15.09296  -0.05272  -0.51795   1.12339
Te    0.00565  13.03050  17.94402  -0.01152  -0.61522   0.73120
Te    7.54159  15.65457  13.57400  -0.04172  -0.53986  -0.71415
Te    4.82278   7.60012   7.03146  -0.25557   0.43332  -0.08403
Te    5.89338  19.53048   2.06063   0.04781  -0.21419  -0.18469
Ge   16.31908   5.30201  13.26413   0.17548  -0.17338   0.15888
Te    3.23241   6.76570   0.66918   0.16719   0.53345  -0.21880
Te    6.02098   8.05796   1.06116   0.27047   0.58545  -0.29478
Te    7.58824  19.21286  12.36075   0.36472  -0.31888   0.16913
Ge    1.42231   1.93938   3.02322  -0.48210   0.25354   0.19181
Te   14.49255  11.71445  17.65376  -0.02217   0.50162   0.01669
Ge    1.92557  19.89487  10.60351 -36.45831  44.60840  22.54969
Te   13.76171   5.58156  12.25140  -0.28797   0.33188   0.10080
Te    5.11284   3.24950   2.86814  -0.92798  -0.69482  -0.02029
Te    1.27991  14.16042  10.96995   0.76158  -0.79518   0.00672
Te    1.77940  16.17937   4.01637  -0.19570   0.22478   0.90736
Ge   16.42060   0.11695   1.63016  -0.38155  -0.14347  -0.34829
Te    1.06796   0.28277   7.74908  -0.66909  -0.04452   0.48978
Te    7.34709   9.28084   6.37067   0.17894  -0.95367  -0.27631
Te    5.96615  16.77177  11.40304   0.46150   0.31015   0.10191
Te    0.85229   4.01437   1.75069   0.35008   0.61819   0.28079
Te    0.81313  12.77702   0.69603  -0.24367   0.12850  -0.72558
Ge   13.20758  11.04137   3.04793   0.18335   0.22879  -0.05730
Te    8.38826  18.87402  18.48821   0.46993  -0.43641  -0.14140
Te    8.63789  11.56803   8.91337   0.46047  -0.57912  -0.25230
Te   18.75553  19.41231   0.09917   0.17086  -0.51651  -0.24990
Te   11.16607   8.06922  14.16869   0.13339   0.09888  -0.31584
Te    6.43731  13.70403   9.83958   0.06988   0.04121   0.31502
Te   20.18889  16.66635  12.70695  -1.13260  -0.04474   0.61768
Te   10.16233  13.56890  16.40902   0.19490  -1.34344   0.70245
Ge    9.83491  16.49867   2.16715  -0.49299   0.61661  -0.05294
Ge   19.18942   4.67578   9.68173  -0.08098  -0.36914  -0.15291
Te    1.27601  10.27942   3.33951 107.61915 -34.95089 -82.98083
Ge    7.75251  16.07881   1.00442   0.38861  -0.13694   0.47451
Te   10.96603  16.36020  18.73913  -0.09510   0.27558  -0.46441
Te    2.35107  11.24633  18.04736  -0.97059   0.84646   0.75116
Te    9.31255  16.68004   7.07607   9.87209   5.24612 -32.28909
Te   13.79163  14.42231  16.36294  -0.10785   0.43087  -0.06985
Te   14.45713   0.21961  11.30881   0.00082   0.05213  -0.40936
Te    6.35231   6.66139  14.59858   0.59781  -0.42031   0.18389
Te    6.87613   0.36355  17.62953  -0.65415   0.12161  -0.59273
Ge    6.58842   1.10153  13.06728  -0.52512   0.09597   0.18578
Te    5.53054  18.50953   6.07560  -0.09666   0.10017   0.25394
Te   11.47589   9.66130   5.89659  -0.73947   0.37538  -0.71739
Ge   18.01340  11.22220   6.07918   0.36259  -0.19755   0.10797
Te   14.53351   2.09031   7.61576   0.30703   0.25085  -0.42511
Te    8.43718   4.66456   6.31184  -0.17865  -0.02469  -0.32140
Te    3.48847   2.37563   0.41714  -0.16945   0.28189  -0.84365
Te   18.40545  13.80897  12.73447   0.71399  -0.02962   0.40395
Ge   14.38188   3.00920  10.34942  -0.74606   0.40258  -0.24303
Te    0.33937  16.52797   1.11235  -0.12118  -0.07272  -0.80261