 2
config_type=isGe Lattice="    5.55644   0.00000   0.00000   0.00000   5.55644   0.00000   0.00000   0.00000   5.55644"    Properties=species:S:1:pos:R:3:forces:R:3 energy=-293.8278 pbc="T T T"
Ge      0.781397812      0.787742565      0.781883316    -44.023885114    -43.314304477    -44.063715847
Ge      1.518633928      1.512289175      1.518148423     44.157207550     43.344373384     44.005881583
 2
config_type=isGe Lattice="    5.55644   0.00000   0.00000   0.00000   5.55644   0.00000   0.00000   0.00000   5.55644"    Properties=species:S:1:pos:R:3:forces:R:3 energy=-296.3407 pbc="T T T"
Ge      0.771295834      0.777814973      0.771794240    -38.764696668    -38.111042734    -38.755526960
Ge      1.528735906      1.522216767      1.528237500     38.820513812     38.134375373     38.729460607
 2
config_type=isGe Lattice="    5.55644   0.00000   0.00000   0.00000   5.55644   0.00000   0.00000   0.00000   5.55644"    Properties=species:S:1:pos:R:3:forces:R:3 energy=-298.3132 pbc="T T T"
Ge      0.762337639      0.769011582      0.762847692    -34.714515634    -34.116990096    -34.687633532
Ge      1.537694101      1.531020158      1.537184048     34.737487404     34.133650814     34.673460271
 2
config_type=isGe Lattice="    5.55644   0.00000   0.00000   0.00000   5.55644   0.00000   0.00000   0.00000   5.55644"    Properties=species:S:1:pos:R:3:forces:R:3 energy=-299.9137 pbc="T T T"
Ge      0.754266594      0.761080268      0.754787250    -31.521886258    -30.973992891    -31.489252764
Ge      1.545765146      1.538951472      1.545244490     31.530391082     30.985467207     31.479867700
 2
config_type=isGe Lattice="    5.55644   0.00000   0.00000   0.00000   5.55644   0.00000   0.00000   0.00000   5.55644"    Properties=species:S:1:pos:R:3:forces:R:3 energy=-301.2466 pbc="T T T"
Ge      0.746901352      0.753842795      0.747431744    -28.942482806    -28.436913234    -28.908717451
Ge      1.553130388      1.546188944      1.552599996     28.944204832     28.444425474     28.901266918
 2
config_type=isGe Lattice="    5.55644   0.00000   0.00000   0.00000   5.55644   0.00000   0.00000   0.00000   5.55644"    Properties=species:S:1:pos:R:3:forces:R:3 energy=-302.3326 pbc="T T T"
Ge      0.740112367      0.747171033      0.740651046    -26.775626628    -26.376333685    -26.736853770
Ge      1.559919373      1.552860707      1.559380694     26.809584834     26.370014482     26.773229615
 2
config_type=isGe Lattice="    5.55644   0.00000   0.00000   0.00000   5.55644   0.00000   0.00000   0.00000   5.55644"    Properties=species:S:1:pos:R:3:forces:R:3 energy=-303.3131 pbc="T T T"
Ge      0.733802424      0.740962505      0.734349601    -25.023352512    -24.606464153    -24.991265868
Ge      1.566229316      1.559069235      1.565682139     25.008491166     24.613492796     24.973955703
 2
config_type=isGe Lattice="    5.55644   0.00000   0.00000   0.00000   5.55644   0.00000   0.00000   0.00000   5.55644"    Properties=species:S:1:pos:R:3:forces:R:3 energy=-304.1492 pbc="T T T"
Ge      0.727895973      0.735159921      0.728450982    -23.486330597    -23.076168142    -23.456329856
Ge      1.572135767      1.564871819      1.571580758     23.475157226     23.069563788     23.443010505
 2
config_type=isGe Lattice="    5.55644   0.00000   0.00000   0.00000   5.55644   0.00000   0.00000   0.00000   5.55644"    Properties=species:S:1:pos:R:3:forces:R:3 energy=-304.8621 pbc="T T T"
Ge      0.722345654      0.729700433      0.722907186    -22.130639517    -21.781772743    -22.103293564
Ge      1.577686086      1.570331306      1.577124554     22.125586493     21.770426295     22.091837061
 2
config_type=isGe Lattice="    5.55644   0.00000   0.00000   0.00000   5.55644   0.00000   0.00000   0.00000   5.55644"    Properties=species:S:1:pos:R:3:forces:R:3 energy=-305.5171 pbc="T T T"
Ge      0.717104355      0.724544803      0.717672895    -20.934617425    -20.584105763    -20.907684630
Ge      1.582927385      1.575486937      1.582358845     20.942886966     20.546278063     20.914733332
 2
config_type=isGe Lattice="    5.55644   0.00000   0.00000   0.00000   5.55644   0.00000   0.00000   0.00000   5.55644"    Properties=species:S:1:pos:R:3:forces:R:3 energy=-306.1240 pbc="T T T"
Ge      0.712138873      0.719665793      0.712713935    -19.851179700    -19.510055542    -19.825436086
Ge      1.587892867      1.580365947      1.587317805     19.855893171     19.513706208     19.829503911
 2
config_type=isGe Lattice="    5.55644   0.00000   0.00000   0.00000   5.55644   0.00000   0.00000   0.00000   5.55644"    Properties=species:S:1:pos:R:3:forces:R:3 energy=-306.6708 pbc="T T T"
Ge      0.707426037      0.715033989      0.708007289    -18.864958645    -18.539783914    -18.840380807
Ge      1.592605703      1.584997751      1.592024451     18.869418385     18.545945484     18.844417119
 2
config_type=isGe Lattice="    5.55644   0.00000   0.00000   0.00000   5.55644   0.00000   0.00000   0.00000   5.55644"    Properties=species:S:1:pos:R:3:forces:R:3 energy=-307.1655 pbc="T T T"
Ge      0.702943165      0.710628201      0.703530309    -17.964307503    -17.654205607    -17.940826403
Ge      1.597088575      1.589403539      1.596501431     17.968267414     17.660211734     17.944489675
 2
config_type=amor Lattice="    5.55644   0.00000   0.00000   0.00000   5.55644   0.00000   0.00000   0.00000   5.55644"    Properties=species:S:1:pos:R:3:forces:R:3 energy=-373.1912 pbc="T T T"
P       0.731710463      0.728742275      0.725378272    -22.607152030    -23.872575726    -24.284496672
P       1.568321277      1.571289465      1.574653468     22.787805895     24.051195965     24.488876605
 2
config_type=amor Lattice="    5.55644   0.00000   0.00000   0.00000   5.55644   0.00000   0.00000   0.00000   5.55644"    Properties=species:S:1:pos:R:3:forces:R:3 energy=-374.9989 pbc="T T T"
P       0.719861974      0.716318080      0.712751452    -18.685662084    -19.443231168    -19.723744937
P       1.580169766      1.583713660      1.587280287     18.762311834     19.509473708     19.798827624
 2
config_type=amor Lattice="    5.55644   0.00000   0.00000   0.00000   5.55644   0.00000   0.00000   0.00000   5.55644"    Properties=species:S:1:pos:R:3:forces:R:3 energy=-376.1962 pbc="T T T"
P       0.709981319      0.706090536      0.702384571    -15.797835443    -16.264550538    -16.466000354
P       1.590050420      1.593941204      1.597647169     15.830355353     16.290790061     16.495286620
 2
config_type=amor Lattice="    5.55644   0.00000   0.00000   0.00000   5.55644   0.00000   0.00000   0.00000   5.55644"    Properties=species:S:1:pos:R:3:forces:R:3 energy=-377.0426 pbc="T T T"
P       0.701568515      0.697459673      0.693651927    -13.587907998    -13.890037186    -14.042785602
P       1.598463225      1.602572067      1.606379813     13.601608919     13.900626385     14.054401157
 2
config_type=amor Lattice="    5.55644   0.00000   0.00000   0.00000   5.55644   0.00000   0.00000   0.00000   5.55644"    Properties=species:S:1:pos:R:3:forces:R:3 energy=-377.6672 pbc="T T T"
P       0.694290361      0.690036655      0.686150320    -11.847936302    -12.055496863    -12.177034388
P       1.605741379      1.609995085      1.613881420     11.853555045     12.059700157     12.181583945
 2
config_type=amor Lattice="    5.55644   0.00000   0.00000   0.00000   5.55644   0.00000   0.00000   0.00000   5.55644"    Properties=species:S:1:pos:R:3:forces:R:3 energy=-378.1427 pbc="T T T"
P       0.687913213      0.683557184      0.679607286    -10.446840806    -10.598561816    -10.699152331
P       1.612118527      1.616474556      1.620424454     10.449001289     10.600112642     10.700827877
 2
config_type=amor Lattice="    5.55644   0.00000   0.00000   0.00000   5.55644   0.00000   0.00000   0.00000   5.55644"    Properties=species:S:1:pos:R:3:forces:R:3 energy=-378.5135 pbc="T T T"
P       0.682266969      0.677834143      0.673830930     -9.297625494     -9.415138525     -9.500962793
P       1.617764771      1.622197597      1.626200810      9.298317552      9.415583094      9.501462182
 2
config_type=amor Lattice="    5.55644   0.00000   0.00000   0.00000   5.55644   0.00000   0.00000   0.00000   5.55644"    Properties=species:S:1:pos:R:3:forces:R:3 energy=-378.8081 pbc="T T T"
P       0.677224039      0.672730368      0.668681162     -8.340447467     -8.435996038     -8.510697709
P       1.622807701      1.627301372      1.631350578      8.340697793      8.436135850      8.511905415
 2
config_type=amor Lattice="    5.55644   0.00000   0.00000   0.00000   5.55644   0.00000   0.00000   0.00000   5.55644"    Properties=species:S:1:pos:R:3:forces:R:3 energy=-379.0460 pbc="T T T"
P       0.672686582      0.668142420      0.664052740     -7.532254218     -7.612886835     -7.679370731
P       1.627345158      1.631889320      1.635978999      7.532306186      7.613813472      7.680289358
 2
config_type=amor Lattice="    5.55644   0.00000   0.00000   0.00000   5.55644   0.00000   0.00000   0.00000   5.55644"    Properties=species:S:1:pos:R:3:forces:R:3 energy=-379.2409 pbc="T T T"
P       0.668577953      0.663990562      0.659864816     -6.841788787     -6.912095689     -6.971820667
P       1.631453787      1.636041178      1.640166924      6.842473355      6.912744270      6.972439250
 2
config_type=amor Lattice="    5.55644   0.00000   0.00000   0.00000   5.55644   0.00000   0.00000   0.00000   5.55644"    Properties=species:S:1:pos:R:3:forces:R:3 energy=-379.4022 pbc="T T T"
P       0.664837323      0.660212013      0.656053733     -6.246129869     -6.308553848     -6.362702194
P       1.635194417      1.639819726      1.643978007      6.246769682      6.309151006      6.363268705
 2
config_type=amor Lattice="    5.55644   0.00000   0.00000   0.00000   5.55644   0.00000   0.00000   0.00000   5.55644"    Properties=species:S:1:pos:R:3:forces:R:3 energy=-379.5371 pbc="T T T"
P       0.661415515      0.656756308      0.652568435     -5.727584883     -5.783827959     -5.833267794
P       1.638616225      1.643275432      1.647463305      5.728191251      5.784396693      5.833806083
 2
config_type=amor Lattice="    5.55644   0.00000   0.00000   0.00000   5.55644   0.00000   0.00000   0.00000   5.55644"    Properties=species:S:1:pos:R:3:forces:R:3 energy=-379.6508 pbc="T T T"
P       0.658272238      0.653582340      0.649367379     -5.272581089     -5.323789061     -5.369180443
P       1.641759502      1.646449400      1.650664360      5.273167654      5.324340592      5.369701641
 2
config_type=amor Lattice="    5.55644   0.00000   0.00000   0.00000   5.55644   0.00000   0.00000   0.00000   5.55644"    Properties=species:S:1:pos:R:3:forces:R:3 energy=-379.7474 pbc="T T T"
P       0.655374133      0.650656193      0.646416312     -4.870507845     -4.917488212     -4.959350035
P       1.644657607      1.649375547      1.653615428      4.871081498      4.918027898      4.959858800
 2
config_type=amor Lattice="    5.55644   0.00000   0.00000   0.00000   5.55644   0.00000   0.00000   0.00000   5.55644"    Properties=species:S:1:pos:R:3:forces:R:3 energy=-379.8300 pbc="T T T"
P       0.652693292      0.647949556      0.643686655     -4.512962108     -4.556309718     -4.595059726
P       1.647338448      1.652082184      1.656345085      4.513526033      4.556840001      4.595559016
 2
config_type=amor Lattice="    5.55644   0.00000   0.00000   0.00000   5.55644   0.00000   0.00000   0.00000   5.55644"    Properties=species:S:1:pos:R:3:forces:R:3 energy=-379.9011 pbc="T T T"
P       0.650206144      0.645438560      0.641154320     -4.193209480     -4.233381029     -4.269363679
P       1.649825596      1.654593180      1.658877420      4.193765156      4.233903000      4.269854628
 3
config_type=amor Lattice="    5.55644   0.00000   0.00000   0.00000   5.55644   0.00000   0.00000   0.00000   5.55644"  Properties=species:S:1:pos:R:3:forces:R:3 pbc="T T T"
Se      0.674522966      0.674410242      0.680698842    -41.162758855    -40.282901815    -39.490998737
Ge      1.390095994      1.382114257      1.381250052     14.011817822     12.003234658     12.345459534
P       2.118687526      2.137691673      2.123684318     26.525994457     28.057282975     26.233989586
 3
config_type=amor Lattice="    5.55644   0.00000   0.00000   0.00000   5.55644   0.00000   0.00000   0.00000   5.55644"  Properties=species:S:1:pos:R:3:forces:R:3 pbc="T T T"
Se      0.658286565      0.658446436      0.665156213    -36.061583303    -35.195027888    -34.594406014
Ge      1.396259517      1.387308772      1.386721034     12.197587476     10.439061211     10.758024786
P       2.145631901      2.166213291      2.150483771     23.081501531     24.652058260     23.091552105
 3
config_type=amor Lattice="    5.55644   0.00000   0.00000   0.00000   5.55644   0.00000   0.00000   0.00000   5.55644"  Properties=species:S:1:pos:R:3:forces:R:3 pbc="T T T"
Se      0.643999610      0.644387800      0.651424799    -32.081549777    -31.263264880    -30.819853149
Ge      1.401730908      1.391874512      1.391537713     10.932758417      9.317989397      9.628714821
P       2.169228840      2.191351795      2.174199530     20.308763752     21.822652781     20.572686423
 3
config_type=amor Lattice="    5.55644   0.00000   0.00000   0.00000   5.55644   0.00000   0.00000   0.00000   5.55644"  Properties=species:S:1:pos:R:3:forces:R:3 pbc="T T T"
Se      0.631237753      0.631835165      0.639114421    -28.891621643    -28.142973007    -27.819457194
Ge      1.406693266      1.395991845      1.395876147      9.975492124      8.437146096      8.751285115
P       2.190130932      2.213701979      2.195413566     18.106269089     19.494786064     18.501376823
 3
config_type=amor Lattice="    5.55644   0.00000   0.00000   0.00000   5.55644   0.00000   0.00000   0.00000   5.55644"  Properties=species:S:1:pos:R:3:forces:R:3 pbc="T T T"
Se      0.619690393      0.620496486      0.627950468    -26.316903330    -25.616024039    -25.378966851
Ge      1.411256806      1.399758697      1.399845170      9.244877625      7.735785338      8.061684314
P       2.208871664      2.233778831      2.214570846     16.334216569     17.600332770     16.788927836
 3
config_type=amor Lattice="    5.55644   0.00000   0.00000   0.00000   5.55644   0.00000   0.00000   0.00000   5.55644"  Properties=species:S:1:pos:R:3:forces:R:3 pbc="T T T"
Se      0.609123604      0.610145813      0.617726284    -24.204271641    -23.532471165    -23.357238012
Ge      1.415503672      1.403242433      1.403519785      8.660430065      7.166196039      7.503629269
P       2.225854842      2.252000485      2.232022390     14.882961098     16.048924797     15.361973271
 3
config_type=amor Lattice="    5.55644   0.00000   0.00000   0.00000   5.55644   0.00000   0.00000   0.00000   5.55644"  Properties=species:S:1:pos:R:3:forces:R:3 pbc="T T T"
Se      0.599366641      0.600613300      0.608286202    -22.434262540    -21.779673784    -21.649847268
Ge      1.419490178      1.406490035      1.406951805      8.173134117      6.691229355      7.037909110
P       2.241383763      2.268689820      2.248043609     13.669594175     14.759022330     14.156655649
 3
config_type=amor Lattice="    5.55644   0.00000   0.00000   0.00000   5.55644   0.00000   0.00000   0.00000   5.55644"  Properties=species:S:1:pos:R:3:forces:R:3 pbc="T T T"
Se      0.590293689      0.591771525      0.599512618    -20.922397930    -20.277932905    -20.182538443
Ge      1.423256076      1.409535224      1.410177902      7.753698754      6.284305642      6.638144992
P       2.255685992      2.284092644      2.262848350     12.635723756     13.668461010     13.124351258
 3
config_type=amor Lattice="    5.55644   0.00000   0.00000   0.00000   5.55644   0.00000   0.00000   0.00000   5.55644"  Properties=species:S:1:pos:R:3:forces:R:3 pbc="T T T"
Se      0.581809689      0.583523508      0.591315119    -19.609391407    -18.970859562    -18.902516981
Ge      1.426830427      1.412402848      1.413224749      7.384070215      5.927199353      6.286709849
P       2.268935752      2.298397964      2.276604597     11.740687358     12.732035492     12.228750875
 3
config_type=amor Lattice="    5.55644   0.00000   0.00000   0.00000   5.55644   0.00000   0.00000   0.00000   5.55644"  Properties=species:S:1:pos:R:3:forces:R:3 pbc="T T T"
Se      0.573840900      0.575793901      0.583622744    -18.453184600    -17.818060628    -17.771734721
Ge      1.430235248      1.415111744      1.416112386      7.052593275      5.607497722      5.971800045
P       2.281269434      2.311753715      2.289446279     10.955689146     11.917187336     11.443052430
 3
config_type=amor Lattice="    5.55644   0.00000   0.00000   0.00000   5.55644   0.00000   0.00000   0.00000   5.55644"  Properties=species:S:1:pos:R:3:forces:R:3 pbc="T T T"
Se      0.566328650      0.568522832      0.576378606    -17.423396694    -16.790083212    -16.762275501
Ge      1.433487735      1.417676577      1.418856317      6.751392340      5.316749130      5.685337149
P       2.292796304      2.324278164      2.301482090     10.259959488     11.200485154     10.747313248
 3
config_type=amor Lattice="    5.55644   0.00000   0.00000   0.00000   5.55644   0.00000   0.00000   0.00000   5.55644"  Properties=species:S:1:pos:R:3:forces:R:3 pbc="T T T"
Se      0.559225185      0.561661783      0.569536182    -16.497610904    -15.865032042    -15.853244176
Ge      1.436601765      1.420109132      1.421468954      6.475200128      5.049034175      5.421953036
P       2.303605581      2.336067381      2.312801537      9.637848983     10.563589073     10.126145633
 3
config_type=amor Lattice="    5.55644   0.00000   0.00000   0.00000   5.55644   0.00000   0.00000   0.00000   5.55644"  Properties=species:S:1:pos:R:3:forces:R:3 pbc="T T T"
Se      0.552490617      0.555170317      0.563056299    -15.667738564    -15.027874124    -15.033105326
Ge      1.439588928      1.422419489      1.423960871      6.219937909      4.801744206      5.181084143
P       2.313771786      2.347200830      2.323479703      9.077642910      9.993592615      9.568229580
 3
config_type=amor Lattice="    5.55644   0.00000   0.00000   0.00000   5.55644   0.00000   0.00000   0.00000   5.55644"  Properties=species:S:1:pos:R:3:forces:R:3 pbc="T T T"
Se      0.546089457      0.549013460      0.556905232    -14.904243611    -14.270620343    -14.280137972
Ge      1.442460644      1.424616773      1.426341736      5.983885377      4.568180819      4.954072438
P       2.323358631      2.357746287      2.333579909      8.570100375      9.479601668      9.063473758
 3
config_type=amor Lattice="    5.55644   0.00000   0.00000   0.00000   5.55644   0.00000   0.00000   0.00000   5.55644"  Properties=species:S:1:pos:R:3:forces:R:3 pbc="T T T"
Se      0.539994543      0.543162999      0.551055667    -14.205036027    -13.570272084    -13.597417981
Ge      1.445224284      1.426707794      1.428617932      5.765123830      4.351217917      4.738848841
P       2.332418077      2.367759713      2.343156828      8.107537822      9.013935139      8.604538218
 3
config_type=amor Lattice="    5.55644   0.00000   0.00000   0.00000   5.55644   0.00000   0.00000   0.00000   5.55644"  Properties=species:S:1:pos:R:3:forces:R:3 pbc="T T T"
Se      0.534181521      0.537594981      0.545482915    -13.559549082    -12.922857957    -12.961850902
Ge      1.447886810      1.428698015      1.430796256      5.558681540      4.144459263      4.537603750
P       2.340995900      2.377289375      2.352257467      7.684071041      8.589903885      8.185602161
 3
config_type=amor Lattice="    5.55644   0.00000   0.00000   0.00000   5.55644   0.00000   0.00000   0.00000   5.55644"  Properties=species:S:1:pos:R:3:forces:R:3 pbc="T T T"
Se      0.528628732      0.532287889      0.540166542    -12.963381522    -12.324113598    -12.373691131
Ge      1.450454668      1.430592734      1.432881879      5.365546417      3.948880035      4.348063884
P       2.349132204      2.386377707      2.360921802      7.294855312      8.202211631      7.801768139
 3
config_type=amor Lattice="    5.55644   0.00000   0.00000   0.00000   5.55644   0.00000   0.00000   0.00000   5.55644"  Properties=species:S:1:pos:R:3:forces:R:3 pbc="T T T"
Se      0.523316718      0.527222443      0.535087586    -12.411094631    -11.768623496    -11.828265155
Ge      1.452934051      1.432397094      1.434880143      5.184711563      3.763550961      4.169228353
P       2.356862083      2.395061808      2.369185658      6.935754265      7.846428053      7.448772101
 3
config_type=amor Lattice="    5.55644   0.00000   0.00000   0.00000   5.55644   0.00000   0.00000   0.00000   5.55644"  Properties=species:S:1:pos:R:3:forces:R:3 pbc="T T T"
Se      0.518228098      0.522381472      0.530229080    -11.898105114    -11.251807409    -11.321151484
Ge      1.455330663      1.434115821      1.436795997      5.015275113      3.587657022      4.000274215
P       2.364216470      2.403374378      2.377080682      6.603301743      7.518874344      7.123093904
 3
config_type=amor Lattice="    5.55644   0.00000   0.00000   0.00000   5.55644   0.00000   0.00000   0.00000   5.55644"  Properties=species:S:1:pos:R:3:forces:R:3 pbc="T T T"
Se      0.513347258      0.517749569      0.525575784    -11.420512854    -10.769766948    -10.848542009
Ge      1.457649772      1.435753259      1.438634008      4.856379185      3.420518859      3.840415343
P       2.371222830      2.411344511      2.384635025      6.294636791      7.216765588      6.821848169
 3
config_type=amor Lattice="    5.55644   0.00000   0.00000   0.00000   5.55644   0.00000   0.00000   0.00000   5.55644"  Properties=species:S:1:pos:R:3:forces:R:3 pbc="T T T"
Se      0.508660093      0.513312830      0.521113945    -10.974960770    -10.319150180    -10.407154115
Ge      1.459896272      1.437313415      1.440398412      4.707457416      3.261487163      3.689177327
P       2.377905644      2.418998259      2.391873822      6.007115199      6.936896594      6.542334675
 3
config_type=amor Lattice="    5.55644   0.00000   0.00000   0.00000   5.55644   0.00000   0.00000   0.00000   5.55644"  Properties=species:S:1:pos:R:3:forces:R:3 pbc="T T T"
Se      0.504153799      0.509058741      0.516831081    -10.558537117     -9.897065350     -9.994140424
Ge      1.462074755      1.438800082      1.442093185      4.567801619      3.110007822      3.545920371
P       2.384286792      2.426358640      2.398819570      5.738667832      6.677215691      6.282468573
 3
config_type=amor Lattice="    5.55644   0.00000   0.00000   0.00000   5.55644   0.00000   0.00000   0.00000   5.55644"  Properties=species:S:1:pos:R:3:forces:R:3 pbc="T T T"
Se      0.499816711      0.504975880      0.512715829    -10.168687885     -9.500970872     -9.607004577
Ge      1.464189484      1.440216751      1.443722008      4.436810657      2.965577252      3.410115860
P       2.390386021      2.433446586      2.405492613      5.487443426      6.435832681      6.040368528
 3
config_type=amor Lattice="    5.55644   0.00000   0.00000   0.00000   5.55644   0.00000   0.00000   0.00000   5.55644"  Properties=species:S:1:pos:R:3:forces:R:3 pbc="T T T"
Se      0.495638167      0.501053818      0.508757777     -9.803157308     -9.128632311     -9.243542039
Ge      1.466244418      1.441566649      1.445288291      4.313854014      2.827654605      3.281309096
P       2.396221230      2.440281119      2.411911501      5.251896950      6.211138171      5.814726070
 3
config_type=amor Lattice="    5.55644   0.00000   0.00000   0.00000   5.55644   0.00000   0.00000   0.00000   5.55644"  Properties=species:S:1:pos:R:3:forces:R:3 pbc="T T T"
Se      0.491608392      0.497283013      0.504947397     -9.459936614     -8.778067727     -8.901801288
Ge      1.468243277      1.442852814      1.446795231      4.198564279      2.695968243      3.159008727
P       2.401808618      2.446879452      2.418093028      5.030496025      6.001474692      5.603461375
 3
config_type=amor Lattice="    5.55644   0.00000   0.00000   0.00000   5.55644   0.00000   0.00000   0.00000   5.55644"  Properties=species:S:1:pos:R:3:forces:R:3 pbc="T T T"
Se      0.487718401      0.493654698      0.501275985     -9.137233837     -8.447518519     -8.580046822
Ge      1.470189545      1.444078090      1.448245857      4.090365168      2.570042569      3.042802572
P       2.407162930      2.453257259      2.424052288      4.822077892      5.805619902      5.405587948
 3
config_type=amor Lattice="    5.55644   0.00000   0.00000   0.00000   5.55644   0.00000   0.00000   0.00000   5.55644"  Properties=species:S:1:pos:R:3:forces:R:3 pbc="T T T"
Se      0.483959880      0.490160807      0.497735488     -8.833430346     -8.135410936     -8.276717039
Ge      1.472086418      1.445245100      1.449642947      3.988805968      2.449434438      2.932234207
P       2.412297863      2.459428961      2.429803296      4.625885578      5.622467194      5.220073555
 3
config_type=amor Lattice="    5.55644   0.00000   0.00000   0.00000   5.55644   0.00000   0.00000   0.00000   5.55644"  Properties=species:S:1:pos:R:3:forces:R:3 pbc="T T T"
Se      0.480325213      0.486793902      0.494318473     -8.547072898     -7.840327025     -7.990402925
Ge      1.473936918      1.446356335      1.450989128      3.893389096      2.333953022      2.827071330
P       2.417225750      2.465407680      2.435358842      4.440333826      5.450861849      5.045820245
 3
config_type=amor Lattice="    5.55644   0.00000   0.00000   0.00000   5.55644   0.00000   0.00000   0.00000   5.55644"  Properties=species:S:1:pos:R:3:forces:R:3 pbc="T T T"
Se      0.476807371      0.483547103      0.491018064     -8.276839401     -7.560997360     -7.719839942
Ge      1.475743860      1.447414120      1.452286848      3.803692857      2.223209582      2.726897575
P       2.421957913      2.471205504      2.440730719      4.264883761      5.289932446      4.881999648
 3
config_type=amor Lattice="    5.55644   0.00000   0.00000   0.00000   5.55644   0.00000   0.00000   0.00000   5.55644"  Properties=species:S:1:pos:R:3:forces:R:3 pbc="T T T"
Se      0.473399830      0.480414044      0.487827890     -8.021522214     -7.296274054     -7.463881047
Ge      1.477509831      1.448420629      1.453538388      3.719298430      2.116917718      2.631388198
P       2.426504921      2.476833570      2.445929825      4.098813330      5.138839284      4.727820011
 3
config_type=amor Lattice="    5.55644   0.00000   0.00000   0.00000   5.55644   0.00000   0.00000   0.00000   5.55644"  Properties=species:S:1:pos:R:3:forces:R:3 pbc="T T T"
Se      0.470096543      0.477388814      0.484742040     -7.780018816     -7.045119349     -7.221485695
Ge      1.479237220      1.449377909      1.454745877      3.639800727      2.014819129      2.540241551
P       2.430876587      2.482302146      2.450966237      3.941470566      4.996818841      4.582566829
 3
config_type=amor Lattice="    5.55644   0.00000   0.00000   0.00000   5.55644   0.00000   0.00000   0.00000   5.55644"  Properties=species:S:1:pos:R:3:forces:R:3 pbc="T T T"
Se      0.466891906      0.474465921      0.481755018     -7.551318150     -6.806594403     -6.991706521
Ge      1.480928224      1.450287890      1.455911308      3.564807883      1.916682394      2.453177288
P       2.435082048      2.487620710      2.455849293      3.792275718      4.863173980      4.445593258
 3
config_type=amor Lattice="    5.55644   0.00000   0.00000   0.00000   5.55644   0.00000   0.00000   0.00000   5.55644"  Properties=species:S:1:pos:R:3:forces:R:3 pbc="T T T"
Se      0.463782775      0.471638089      0.478859568     -7.331821628     -6.590241811     -6.783979201
Ge      1.482581523      1.451156122      1.457040208      3.481676482      1.840687215      2.388030205
P       2.439132419      2.492794796      2.460584530      3.653318464      4.729533823      4.308806261
 3
config_type=amor Lattice="    5.55644   0.00000   0.00000   0.00000   5.55644   0.00000   0.00000   0.00000   5.55644"  Properties=species:S:1:pos:R:3:forces:R:3 pbc="T T T"
Se      0.460761301      0.468900044      0.476050412     -7.134283690     -6.377310142     -6.579699368
Ge      1.484202580      1.451985896      1.458135852      3.418138322      1.750366592      2.308874310
P       2.443034896      2.497830141      2.465177733      3.519161075      4.609592688      4.185544405
 3
config_type=amor Lattice="    5.55644   0.00000   0.00000   0.00000   5.55644   0.00000   0.00000   0.00000   5.55644"  Properties=species:S:1:pos:R:3:forces:R:3 pbc="T T T"
Se      0.457822522      0.466249905      0.473325682     -6.939204404     -6.171600026     -6.382612414
Ge      1.485793894      1.452773703      1.459194795      3.353731238      1.662143988      2.231659682
P       2.446796274      2.502739761      2.469641738      3.391812736      4.497897936      4.070310642
 3
config_type=amor Lattice="    5.55644   0.00000   0.00000   0.00000   5.55644   0.00000   0.00000   0.00000   5.55644"  Properties=species:S:1:pos:R:3:forces:R:3 pbc="T T T"
Se      0.454963823      0.463683730      0.470681483     -6.752734007     -5.975440949     -6.194998043
Ge      1.487355534      1.453520656      1.460218120      3.292186958      1.577274176      2.157745583
P       2.450423059      2.507531100      2.473983936      3.270910699      4.392125368      3.961326592
 3
config_type=amor Lattice="    5.55644   0.00000   0.00000   0.00000   5.55644   0.00000   0.00000   0.00000   5.55644"  Properties=species:S:1:pos:R:3:forces:R:3 pbc="T T T"
Se      0.452180961      0.461196971      0.468113487     -6.576615964     -5.796095271     -6.017847356
Ge      1.488889240      1.454228810      1.461207749      3.235170246      1.495122219      2.088606371
P       2.453921988      2.512210940      2.478210859      3.156113809      4.291881329      3.858190153
 3