    80
config_type=liqu Lattice="   13.07380   0.00000   0.00000   0.00000  13.07380   0.00000   0.00000   0.00000  13.07380"    Properties=species:S:1:pos:R:3:forces:R:3 energy=-10701.0648 pbc="T T T"
Ge    9.91707   1.14064  11.51104   1.97916  -1.69380  -0.60154
Ge    1.34902   9.96351  11.34730   1.71257   0.94027   1.27760
Ge    0.06804  12.28239  10.98717   0.44031   0.40544   0.98405
Ge    7.76381   9.69988  11.25413   0.39636  -0.82905  -1.16850
Ge    5.28620   3.56035   7.20839  -0.39460  -0.59031  -0.27818
Ge   11.08846   2.07790   1.02179  -0.22502   0.83864   0.02497
Ge   10.50101   6.86917  12.67416  -0.06580   0.60096   0.20183
Sb    4.45329   8.65884  11.42448   0.46264   0.11785   0.44430
Te    2.76728   3.96645   1.85443  -0.38292   1.60169  -0.02824
Te   11.44387  10.13249  11.96272   0.54655   1.37644  -1.12897
Ge    2.82691  11.67604  10.73724  -0.29071  -0.12225   0.55824
Ge   10.42792   7.13496   6.28627   0.26328  -0.05311  -0.47507
Ge    4.28148   9.23567   5.71177   0.09249  -0.08336  -0.32464
Ge    9.66736  11.02844   8.58297   0.73071  -0.46406  -0.10720
Ge    8.93245  12.30444   7.39637  -1.16967  -0.07440  -0.93411
Ge    7.60130   3.36811   4.42458   1.94376  -1.23569  -0.06905
Ge    1.59726  10.06777   1.89542   0.50112  -0.17804   0.23199
Sb   12.53639   9.38324   9.20527  -0.89421   0.31790  -0.30152
Te   11.36953  12.10706   5.22691   1.54036   0.88501  -1.12415
Te    3.85319  11.99444   7.86913  -0.28712   0.54373  -0.02671
Ge    9.07338   9.75486   4.17060  -1.04876   0.84176  -0.27170
Ge    6.47511   8.03651   1.70323  -0.09397   0.14405   0.72983
Ge    2.22887   0.35233   9.04146  -0.03106  -0.51799  -0.01715
Ge    2.90357   7.52593   8.69775   0.44045   0.31838  -0.31892
Ge    4.90326  12.93917   0.02618  -0.19286   1.47274  -1.14496
Ge    0.69232   9.43560   5.99987   0.03879  -0.05059  -0.36848
Ge    4.53876   6.52066  12.22885  -1.12365  -0.41468  -0.08630
Sb    2.02258  11.67075   5.00844   0.57718  -2.18432   0.64226
Te    1.11624   6.77692  12.75735   0.35936   0.65778   0.18822
Te    8.53938   8.52645   7.53900   0.22213  -0.41101   0.72856
Ge    8.02669   4.20960   7.07309   1.37687  -0.39355  -0.18228
Ge    1.33583   5.69657  11.04083  -1.04674   0.04283   0.66582
Ge    8.20838   2.19745  12.19679   0.16426   1.34174  -1.09323
Ge   12.48425   6.70900   7.74699   0.10340  -0.24348   0.73947
Ge    0.49538   7.27059   3.73791   0.71164   0.18401  -0.02021
Ge    6.91164   2.69603   1.01235  -0.14808  -0.38814   2.27938
Ge    6.81901   6.34562  11.89229   0.89560   0.05508  -0.82629
Sb    7.49283  11.90621  11.14897  -0.76015  -0.11019  -0.46173
Te   11.48805   5.62783   1.85909  -0.83054  -0.96212  -0.18555
Te    2.28609   2.83145  10.38935  -0.15176  -0.86205   1.60054
Ge    5.93515   6.77139   5.86147  -0.45278   0.73257  -1.90935
Ge    9.23580   4.89976   9.44461   0.53500   0.77360  -0.29103
Ge    5.77789   2.59567  12.25140  -0.84985   1.09511  -0.17926
Ge    9.30146   7.14118  10.11065   0.14261   0.34342  -0.02743
Ge    6.70255   4.15719  10.04557   0.10471  -0.80594   1.32242
Ge    0.51882   3.11795   0.90859  -1.22454   2.45723  -0.69118
Ge    4.20219   1.20143   1.68784   0.96293  -1.58540   0.29638
Sb    5.74324   0.79640   6.37282   0.62484  -0.26931  -0.33745
Te    3.62158   7.13984   2.31852   0.22140   1.05874   0.61281
Te    5.58472  11.57692   2.98101  -0.08672   0.20739   0.55393
Ge    0.84574   0.59963  12.62319   0.50608  -1.25235  -1.86827
Ge    7.18603   0.59000   0.16092  -0.37626   0.52464   0.57717
Ge    9.70732   3.93803   0.16504   0.63790  -0.94082   0.25697
Ge   10.02413   9.32709   0.33892  -2.11313  -0.24671   0.35661
Ge    9.96519   1.55737   8.73447   0.28036   0.18969   0.24167
Ge   11.95754   7.93202  10.49881  -0.92383  -1.35249  -0.63398
Ge    2.33019   3.84277   7.60254   3.80945   1.51931  -1.92200
Sb   11.09413   9.33162   3.47765   0.15650  -1.95477   0.69372
Te   12.98756   4.41124   4.70061  -0.01845  -0.01493  -0.81941
Te    8.33618  12.91972   3.10150  -0.88501   1.85423   1.15845
Ge    4.97276   8.98428   7.66437   0.37596  -0.87819  -0.54776
Ge    5.34947   4.80342   4.00850  -1.94025   1.25832  -0.60824
Ge   12.78650  11.25976   1.45003   1.21252   1.52268  -0.43594
Ge    1.49537   0.61126   1.58231   0.36067  -1.49664   0.10899
Ge    7.58295   4.61243   2.38023   0.22475   0.31485   0.30449
Ge   10.87329   3.87225   5.27323  -0.84856  -0.13325   0.49158
Ge    7.32684  10.25307   0.35393  -0.30873  -0.37925   1.08057
Sb    6.24336   5.90010   8.23915  -0.51485   1.84566   0.60355
Te    2.06311   6.97209   5.94194   0.66679  -0.40561   0.42044
Te    8.19538   7.27697   3.71590  -1.30065  -2.17542  -0.38288
Ge   11.70158   4.61445  11.02580   0.16368  -0.14515  -0.51476
Ge    1.23786   1.76045   4.75247   0.23907   1.35143   0.91341
Ge    9.97183   3.17903   2.85996   0.01612  -0.07630  -0.02544
Ge    2.97113   1.42382   5.65879  -0.52397  -0.09512   0.03789
Ge    6.13024   1.12938  10.12258   0.08996  -0.26184  -0.20957
Ge    7.05109  10.11641   5.79676  -0.33742   0.51648   0.08555
Ge    9.88936  11.87069   0.64998  -0.11394  -0.23732  -0.86201
Sb   11.30397  12.04213   7.91937   0.15333   0.45735   1.42876
Te    3.30123  10.92978   0.67839  -0.73086  -3.04223   1.31253
Te   12.69832   3.08925   7.37359  -4.29606  -1.09864  -0.34391
    80
config_type=liqu Lattice="   13.07380   0.00000   0.00000   0.00000  13.07380   0.00000   0.00000   0.00000  13.07380"    Properties=species:S:1:pos:R:3:forces:R:3 energy=-10701.9222 pbc="T T T"
Ge   10.06701   1.10520  11.51960   0.54937  -0.93621  -0.80429
Ge    1.29780   9.88528  11.26782   2.28966   0.88740   1.87830
Ge    0.14114  12.28510  11.10371   0.20472   0.18132   0.26729
Ge    7.77143   9.74932  11.12648   0.11055  -0.97026  -0.57761
Ge    5.40419   3.50419   7.09830  -0.53994  -0.12924   0.17569
Ge   11.01617   2.27253   0.87940  -0.53644  -0.67935   0.73518
Ge   10.54406   6.88929  12.56570  -0.26984   0.78312   0.22874
Sb    4.40870   8.66359  11.43930   0.39960   0.78586   0.81084
Te    2.80358   4.02207   1.92170  -0.51047   1.38314  -0.22774
Te   11.47694   9.99767  12.00113   0.69045   1.50480  -0.74628
Ge    2.85382  11.72059  10.86159  -0.13947  -0.15970   0.37460
Ge   10.49883   7.13870   6.02228   1.11552  -0.33645   0.26066
Ge    4.35533   9.09474   5.77608   0.19117   0.17362  -0.29227
Ge    9.65553  11.06836   8.68303   1.46091  -0.96092  -0.79505
Ge    8.73266  12.33983   7.52722  -0.68220  -0.24047  -1.01471
Ge    7.70269   3.16184   4.37658   0.47203   0.12216  -0.27806
Ge    1.74603  10.07043   1.96633   0.12561  -0.17197   0.34181
Sb   12.53339   9.43088   9.23114  -1.44410   0.21063  -1.58490
Te   11.41369  12.09785   5.31222   0.78005   0.54160  -2.50470
Te    3.85276  12.05191   7.97276  -0.40068  -0.44234  -0.23527
Ge    8.94766   9.80919   4.10166  -0.26311   0.38049  -0.38249
Ge    6.42812   8.12752   1.71659  -0.12304  -0.17577   0.39889
Ge    2.19591   0.42643   9.06814   0.28272  -0.19637  -0.02308
Ge    3.04704   7.45776   8.67077   0.24255   0.32091  -0.51083
Ge    5.16964  12.96533   0.08335  -0.43111   1.23688  -1.04757
Ge    0.67081   9.45824   5.96692   0.05768   0.37179   0.23085
Ge    4.62046   6.49053  12.11893  -1.52227  -0.63970   0.63185
Sb    2.05289  11.61731   5.04540   0.35027  -1.55348   0.58988
Te    1.09448   6.68619  12.75929   0.60513   0.55774  -0.08844
Te    8.50708   8.52422   7.57299   0.38828  -0.09613   0.47943
Ge    8.04505   4.07438   7.08816   1.01080  -0.26480  -0.49850
Ge    1.19666   5.77764  11.00161  -0.97099  -0.03735   0.49124
Ge    8.13095   2.15248  12.08362   2.26585   0.20388  -0.76231
Ge   12.43399   6.62636   7.78387  -0.01413   0.40026   0.38367
Ge    0.38457   7.27835   3.62840   1.27194  -0.62089   0.32187
Ge    6.96851   2.80795   0.99680   0.05183  -0.19432   1.89037
Ge    6.83832   6.53240  11.65431   1.45195   0.21929  -0.11490
Sb    7.48181  11.81649  11.14432  -1.17698   1.02551   0.33905
Te   11.42328   5.59420   1.82341  -0.81612  -0.86890  -0.17824
Te    2.27243   2.99527  10.37957  -0.11237  -1.15701   1.85593
Ge    5.99919   6.75237   5.84877  -0.28313   0.83955  -1.46921
Ge    9.43670   4.95789   9.40084  -0.15438   0.42050   0.23255
Ge    5.82254   2.73972  12.20463  -1.66174   0.89562   0.80836
Ge    9.36265   7.16983   9.89578   0.02710   0.12673   0.36434
Ge    6.64995   4.20376  10.23746   0.31286  -0.13876  -0.15600
Ge    0.31019   3.22397   0.86600   0.04822   2.15120  -0.34584
Ge    4.17786   1.25809   1.83029   0.79773  -1.68330   0.33014
Sb    5.69719   0.77628   6.42963   1.41258  -0.74311  -0.51884
Te    3.48144   7.17020   2.35587   0.42627   0.96951   0.22374
Te    5.59226  11.43488   2.96367  -0.30603  -0.06747   0.34840
Ge    0.71820   0.71319  12.58330   0.22115  -0.84146  -1.75777
Ge    7.05298   0.51956   0.19622   0.55556   1.50311   0.28493
Ge    9.93919   3.93878   0.10755  -0.57544  -0.72514  -0.41203
Ge   10.04359   9.34755   0.45048  -2.12134  -0.44943   0.14032
Ge    9.99705   1.52350   8.66644   0.37612   0.36229   0.54810
Ge   11.90443   7.78752  10.50531  -0.94708  -1.08843  -0.57210
Ge    2.28136   3.98549   7.63237   1.52282   0.50431  -2.57250
Sb   11.21224   9.24965   3.50245  -0.68196  -0.06949   0.34076
Te   12.99771   4.46760   4.74707   0.64478   0.11806  -0.76584
Te    8.25165  12.97644   3.12007   0.02377   1.10920   0.58520
Ge    5.01772   8.71810   7.80314   0.30358   0.43767  -0.92916
Ge    5.36797   4.89951   4.11643  -0.58919  -0.05796  -0.73337
Ge   12.73905  11.39414   1.42359   0.87718   0.36340  -0.05697
Ge    1.43475   0.60588   1.50832   0.89979  -0.73260   0.94262
Ge    7.62994   4.72358   2.40895   0.17197  -0.05239   0.12518
Ge   11.01252   3.80740   5.27293  -1.33730  -0.25889   0.21355
Ge    7.43993  10.29723   0.34986  -0.36410  -1.28707   0.74461
Sb    6.26723   5.94214   8.29230  -0.51413   0.87027   0.37746
Te    1.99683   7.05141   5.94229   0.83927  -0.64060   0.35853
Te    8.26710   7.18608   3.78715  -1.80399  -1.40203  -0.71759
Ge   11.65328   4.47580  11.05189   0.19629  -0.28321  -0.50879
Ge    1.22855   1.82764   4.83787   0.10466   0.46530   0.08411
Ge    9.87264   3.19681   2.79251   0.13247  -0.05402   0.54000
Ge    3.14887   1.39327   5.59588  -1.34570   0.04183   0.24724
Ge    6.21336   1.11197  10.17290   0.08847  -0.38194  -0.37955
Ge    7.08739  10.08486   5.74759  -0.69638   0.56092   0.29629
Ge    9.85533  11.83010   0.57043  -0.24141   0.45635  -0.28720
Sb   11.30525  12.01956   7.85583  -0.01295   0.66361   3.09456
Te    3.20129  10.93850   0.59913  -1.01203  -2.01395   0.85761
Te   12.48274   2.96757   7.33152  -1.75470  -0.34533   0.07263
    80
config_type=liqu Lattice="   13.07380   0.00000   0.00000   0.00000  13.07380   0.00000   0.00000   0.00000  13.07380"    Properties=species:S:1:pos:R:3:forces:R:3 energy=-10702.5430 pbc="T T T"
Ge   10.24630   1.01880  11.48742   0.17535  -0.85977  -0.79467
Ge    1.36081   9.85466  11.28146   1.39288   0.56286   0.99901
Ge    0.22597  12.29722  11.23253   0.20621  -0.24178  -0.22534
Ge    7.78765   9.74566  10.97395   0.33079  -0.96233   0.18732
Ge    5.49045   3.44216   7.00016  -0.50307   0.17009   0.70955
Ge   10.92328   2.42297   0.78111  -0.09794  -2.53168   1.66566
Ge   10.57054   6.94840  12.47419  -0.51913   0.39499   0.44833
Sb    4.37456   8.68912  11.47939  -0.12357   0.74563   0.98003
Te    2.82357   4.11301   1.98250  -0.28206   0.04846   0.15748
Te   11.52760   9.91157  12.01661   0.21955   1.21538  -0.12891
Ge    2.86997  11.75732  11.00188  -0.40041   0.12350   0.11070
Ge   10.62679   7.12957   5.77987   1.67144  -0.22212   0.63640
Ge    4.43823   8.96732   5.82294   0.45550   0.41821  -0.32639
Ge    9.71615  11.05741   8.74017   1.36925  -1.00833  -1.00088
Ge    8.50571  12.36180   7.60428   0.25228  -0.32007  -0.53018
Ge    7.83042   2.96418   4.31832  -0.12025   0.64454  -0.03557
Ge    1.89440  10.06239   2.05261  -0.50852  -0.19407   0.41875
Sb   12.48725   9.48323   9.21423  -1.20855   0.08315  -0.58294
Te   11.48076  12.10587   5.32701   0.37799   0.48585  -2.18789
Te    3.84301  12.09810   8.06749  -0.35814  -0.22171  -0.03995
Ge    8.81234   9.88091   4.01768   0.34260  -0.16495   0.06487
Ge    6.37549   8.20599   1.74941  -0.24532  -0.53036  -0.04268
Ge    2.17708   0.48741   9.09372   0.30180   0.09036   0.12982
Ge    3.20063   7.40862   8.62132   0.02001   0.16609  -0.17652
Ge    5.39334  13.05687   0.08224  -2.98541   0.76169  -1.21115
Ge    0.65031   9.49769   5.94354  -0.11628   0.49153   0.42730
Ge    4.62524   6.43159  12.04267  -0.80586  -0.45718   0.68755
Sb    2.09352  11.51835   5.09887   0.17078  -0.64331   0.41554
Te    1.09159   6.61505  12.75870   0.89929   0.56414  -0.01842
Te    8.48714   8.52208   7.61610   0.31253   0.83213  -0.74090
Ge    8.11329   3.92948   7.07839   0.46692  -0.14172  -0.57068
Ge    1.01067   5.85023  10.98918  -0.63264  -0.49155  -0.11683
Ge    8.16524   2.12119  11.93722   2.21243  -0.43011   0.09563
Ge   12.38223   6.56388   7.83774  -0.15895   0.46956  -0.09461
Ge    0.34543   7.25531   3.53684   1.86099  -1.34110   0.23771
Ge    7.02316   2.89903   1.07503  -0.23875  -0.81736   0.57977
Ge    6.92757   6.72325  11.41656   1.02448  -0.06530   0.49865
Sb    7.43466  11.75902  11.14945  -1.36705   1.39522   0.51517
Te   11.33663   5.53685   1.78533  -0.63195  -0.32677   0.31147
Te    2.25425   3.12293  10.41974  -0.58244  -0.61294   0.36240
Ge    6.04545   6.77646   5.76405  -0.22535   0.64957  -0.38756
Ge    9.62377   5.03560   9.36854  -0.64715   0.04020   0.30452
Ge    5.78434   2.92204  12.20486  -1.25302   0.19353   2.05551
Ge    9.42241   7.20187   9.70816  -0.25769  -0.61676   0.95245
Ge    6.61185   4.24428  10.41467   0.12164   0.89948  -1.39713
Ge    0.10906   3.43300   0.80481   1.07801   0.77568  -0.25579
Ge    4.19387   1.23065   1.98350   0.18505  -0.72976   0.10063
Sb    5.69441   0.73458   6.46730   1.54514  -0.88252  -0.96249
Te    3.35868   7.22793   2.39806   0.83254   0.57341  -0.00937
Te    5.58815  11.29674   2.95696  -0.79269  -0.04177   0.20597
Ge    0.60680   0.77996  12.45976   0.17546   0.03951  -0.48230
Ge    6.95960   0.52205   0.24969   2.59754   0.96593   0.90475
Ge   10.13305   3.91138   0.02729  -1.69074   1.27726  -1.32707
Ge    9.95604   9.34443   0.56317  -1.14941  -0.44579  -0.40448
Ge   10.04487   1.50774   8.62658   0.03280   0.09304   0.45091
Ge   11.80837   7.59518  10.48251  -0.24918   0.01177  -0.39338
Ge    2.32223   4.14964   7.53532   0.77221  -0.33055  -1.43121
Sb   11.30640   9.16741   3.53566  -1.28749   1.55404  -0.30431
Te   13.02485   4.52374   4.77023   0.80806  -0.05706  -0.60383
Te    8.16948  13.06444   3.15586   0.64220   0.38886   0.21053
Ge    5.07919   8.48124   7.89240   0.19571   1.59148  -0.68125
Ge    5.34978   4.99378   4.18217  -0.07742  -0.61174  -1.12096
Ge   12.73698  11.54300   1.39185   0.08800  -0.85553  -0.09671
Ge    1.42218   0.56383   1.48040   1.38309   0.43491   0.70557
Ge    7.68497   4.83379   2.44653   0.01602   0.21696   0.31667
Ge   11.08153   3.73214   5.28621  -1.31277  -0.22522   0.25453
Ge    7.53184  10.27759   0.38213  -0.44757  -1.18097  -0.06015
Sb    6.27496   6.01147   8.35459  -0.31023  -0.50288  -0.32984
Te    1.95723   7.10894   5.95165   0.83087  -0.85121   0.14428
Te    8.28307   7.05706   3.83557  -1.92921  -0.53788  -0.91513
Ge   11.61964   4.32670  11.05195   0.73310  -0.36216  -0.45944
Ge    1.22863   1.92007   4.92474   0.25928  -0.09424  -0.44038
Ge    9.78121   3.21154   2.75159   0.14501  -0.10817   0.65586
Ge    3.24945   1.36452   5.54880  -2.16112   0.16823   0.32837
Ge    6.29854   1.07521  10.20038   0.02395  -0.34924  -0.52937
Ge    7.09090  10.08336   5.71617  -0.48833   0.73119   0.41829
Ge    9.81191  11.81250   0.47737   0.05562   0.73152  -0.06409
Sb   11.30632  12.01726   7.88421  -0.06253   0.46991   2.74149
Te    3.07852  10.88745   0.54683  -0.06226  -0.44731   0.07991
Te   12.21971   2.83929   7.29089  -0.29600   0.34532   0.01296
    80
config_type=liqu Lattice="   13.07380   0.00000   0.00000   0.00000  13.07380   0.00000   0.00000   0.00000  13.07380"    Properties=species:S:1:pos:R:3:forces:R:3 energy=-10702.0467 pbc="T T T"
Ge   10.44050   0.88447  11.41235   0.07997  -0.64713  -0.53973
Ge    1.49906   9.85356  11.34948   0.00478   0.26745   0.11463
Ge    0.32159  12.29216  11.34993  -0.29337  -1.58144  -1.16189
Ge    7.82252   9.69592  10.82564   0.62766   0.29492   0.51880
Ge    5.55233   3.38656   6.93544  -0.37818   0.32436   0.77225
Ge   10.82119   2.44823   0.76792   0.13046  -2.40417   1.87838
Ge   10.56911   7.03164  12.40489  -0.78002   0.10149   0.68935
Sb    4.33740   8.73930  11.55134   0.09436   0.61567   0.69661
Te    2.83554   4.20907   2.04911   0.14521  -0.87442   0.33073
Te   11.58708   9.86138  12.02695  -0.06144   1.05782  -0.03015
Ge    2.86623  11.80261  11.14956  -0.44150   0.62394  -0.64656
Ge   10.84161   7.10997   5.56396   0.69017   0.08053   0.53933
Ge    4.54667   8.85938   5.85463   0.31634   0.65099  -0.10872
Ge    9.84911  10.99218   8.74811   0.51781  -0.76409  -0.31283
Ge    8.28654  12.36561   7.65641   1.35968  -0.76971   0.33724
Ge    7.95433   2.79702   4.25657  -0.82481   1.37483   0.23579
Ge    2.01673  10.04639   2.16247  -1.48772   0.47807   0.29308
Sb   12.40236   9.53962   9.17718  -0.42370  -0.12873   0.34322
Te   11.56156  12.13047   5.27797   0.16319   0.97508  -0.80842
Te    3.82176  12.13847   8.16338  -0.53965  -0.10672   0.17401
Ge    8.69196   9.94664   3.93543   0.88144  -0.50609   0.61844
Ge    6.30830   8.25795   1.78199  -0.40015  -0.74872  -0.26350
Ge    2.17411   0.55345   9.12589   0.36505   0.12103   0.14760
Ge    3.35815   7.36762   8.56046  -0.37082  -0.02268   0.14400
Ge    5.47662   0.11822   0.01481  -2.68954   0.32331  -1.38479
Ge    0.62610   9.56390   5.94294   0.24260   0.42983   0.70760
Ge    4.58515   6.34633  11.99995  -0.17258  -0.29369   0.31265
Sb    2.14116  11.39520   5.16830   0.08935   0.03059   0.59500
Te    1.11607   6.55904  12.75769   1.02500   0.42601   0.20446
Te    8.47633   8.54491   7.63625   0.21784   1.44216  -2.16639
Ge    8.21086   3.77330   7.03851   0.49568   0.05950  -0.47294
Ge    0.78795   5.89789  10.97111   0.31505  -0.82555  -0.63831
Ge    8.31488   2.07164  11.78880   0.90449   0.08354   0.37867
Ge   12.32143   6.52542   7.88690   0.00661   0.58770  -0.76796
Ge    0.40071   7.16499   3.45515   1.23815  -1.07716   0.02194
Ge    7.06683   2.95025   1.19016  -0.39169  -0.91598  -0.07429
Ge    7.07336   6.91087  11.20021   0.19258  -1.32159   1.19322
Sb    7.34402  11.74329  11.17063  -0.78159   1.11608   0.12699
Te   11.22803   5.46843   1.75565  -0.47234   0.46068   0.83061
Te    2.21901   3.23381  10.47387  -0.67127  -0.41978  -0.69321
Ge    6.08043   6.83560   5.65324  -0.24319   0.27068   0.22526
Ge    9.77866   5.11993   9.34882  -1.35110   0.14296  -0.30355
Ge    5.67738   3.12157  12.31008  -0.59416  -0.20645   1.98929
Ge    9.46997   7.19978   9.56691  -0.54600  -1.59300   1.25247
Ge    6.58347   4.32834  10.52894   0.59772   0.64481  -1.02143
Ge   13.03223   3.69205   0.72752   1.47051  -0.12835  -0.28748
Ge    4.22169   1.16193   2.14634  -0.23123   0.01904  -0.08768
Sb    5.73717   0.66510   6.47508   0.12815  -0.32896  -1.33838
Te    3.25974   7.30338   2.44151   1.67900  -0.45632   0.10888
Te    5.55898  11.15470   2.95720  -1.21611   0.36160   0.29093
Ge    0.50417   0.85286  12.30763   0.46035   1.42601   0.89246
Ge    6.98984   0.57784   0.34976   1.72538   0.53906   0.93991
Ge   10.24247   3.94271  12.95307  -2.33160   1.24281  -0.85529
Ge    9.80415   9.31689   0.65886   0.05095  -0.51731  -0.47124
Ge   10.09234   1.49661   8.61065  -1.08742  -0.29125   0.46805
Ge   11.69678   7.39852  10.43909   0.52947   1.19883   0.07200
Ge    2.40819   4.30271   7.35821   0.54343  -0.57699  -0.16054
Sb   11.36346   9.12797   3.56017  -1.27434   1.38717  -0.79127
Te    0.00283   4.57949   4.77654   0.44659  -0.22211  -0.15818
Te    8.10533   0.09065   3.19863   1.25010  -1.17404  -0.28167
Ge    5.14866   8.33145   7.94732  -0.80067   3.92913  -0.37865
Ge    5.32392   5.05999   4.19016  -0.09410  -0.64935  -1.29936
Ge   12.74157  11.65428   1.35353  -0.25255  -1.09425  -0.22088
Ge    1.48246   0.54131   1.49094   1.59143   0.93704   0.51186
Ge    7.74215   4.95840   2.50194  -0.13144   0.32893   0.32837
Ge   11.08311   3.64367   5.31296  -0.98564   0.06153   0.01311
Ge    7.60161  10.19650   0.41204  -0.71577  -0.35807  -0.80967
Sb    6.27420   6.06145   8.40791   0.24550  -3.43764  -1.13445
Te    1.94158   7.14278   5.96583   0.69476  -0.70123  -0.02558
Te    8.24295   6.90682   3.85931  -0.82532  -0.18454  -0.43098
Ge   11.62695   4.15442  11.02593   1.56122  -0.50812  -0.64645
Ge    1.24080   2.00975   4.99128  -0.00971  -0.67054  -0.58862
Ge    9.69661   3.21996   2.74374   0.44757  -0.27954   0.56697
Ge    3.24162   1.34317   5.51743  -1.71497   0.15035   0.23773
Ge    6.38597   1.01945  10.20157  -0.24104  -0.06486  -0.18142
Ge    7.06774  10.12163   5.70678  -0.35119   0.99266   0.51300
Ge    9.77206  11.83240   0.37787   0.70581   0.57184  -0.06176
Sb   11.30748  12.02856   7.99805   0.44565  -0.24345   1.01000
Te    2.94919  10.81799   0.49860   0.55694   0.16111   0.37170
Te   11.94010   2.71757   7.24861   0.94237   0.80271  -0.39591
    80
config_type=liqu Lattice="   13.07380   0.00000   0.00000   0.00000  13.07380   0.00000   0.00000   0.00000  13.07380"    Properties=species:S:1:pos:R:3:forces:R:3 energy=-10701.6114 pbc="T T T"
Ge   10.63805   0.71630  11.30904  -0.19105  -0.23838  -0.20392
Ge    1.63797   9.86708  11.42563  -1.15728   0.09763  -0.20706
Ge    0.40496  12.20898  11.41084  -0.13299  -1.65412  -0.93208
Ge    7.89185   9.66463  10.70451   0.91343   1.95694   0.66103
Ge    5.59298   3.34743   6.91103  -0.32957   0.35891   0.43127
Ge   10.72722   2.35447   0.84830   0.40655  -0.16669   0.73991
Ge   10.52628   7.12217  12.37162  -0.90606   0.05236   0.67491
Sb    4.30422   8.80791  11.64574   0.66953   0.19213   0.38835
Te    2.85192   4.28015   2.12492   0.66277  -1.02623   0.23423
Te   11.64541   9.84304  12.03597  -0.02660   0.87967  -0.16557
Ge    2.83879  11.88077  11.26284  -0.47207   1.03411  -1.26659
Ge   11.09277   7.09383   5.37882  -0.50636   0.24841   0.68585
Ge    4.66894   8.78817   5.88077  -0.43960   1.09817   0.21552
Ge   10.01040  10.88611   8.73943  -0.16761  -0.69691   0.54543
Ge    8.14177  12.32838   7.72791   2.35005  -1.13053   1.20731
Ge    8.03103   2.70811   4.20949  -2.00294   2.69093   0.77454
Ge    2.06106  10.05522   2.28653  -2.00955   0.93683  -0.10926
Sb   12.30290   9.59209   9.15020  -0.01539  -0.33010   0.82197
Te   11.64698  12.18341   5.20193  -0.02091   1.17242  -0.11119
Te    3.78451  12.17550   8.26406  -0.55134  -0.14390   0.23762
Ge    8.61796   9.98625   3.88588   1.06915  -0.61540   0.94109
Ge    6.21909   8.27155   1.80126  -0.68591  -0.60141  -0.21318
Ge    2.19039   0.62545   9.16512   0.33500   0.09768   0.05793
Ge    3.49630   7.32653   8.50858  -0.44535   0.05514   0.60260
Ge    5.42414   0.26934  12.95271  -0.41686  -0.23083  -0.60077
Ge    0.61322   9.65262   5.97750   0.33371   0.25332   0.40118
Ge    4.53426   6.24631  11.97457   0.09015  -0.11146   0.02546
Sb    2.19224  11.27306   5.25638   0.13523   0.59798   0.80787
Te    1.17078   6.51603  12.76198   0.63900   0.03492   0.12972
Te    8.47262   8.60884   7.59506   0.27409   0.98526  -1.94526
Ge    8.33431   3.62107   6.97367   0.50790   0.33894  -0.25690
Ge    0.58406   5.90385  10.92196   1.57299  -0.64698  -0.43463
Ge    8.51482   2.02385  11.65786   0.00233   0.07732   0.09031
Ge   12.25998   6.51805   7.89486  -0.06379   0.66991  -1.43492
Ge    0.51976   7.01835   3.37470   0.07215  -0.38833  -0.26684
Ge    7.09031   2.95409   1.30312  -0.31713  -0.68403  -0.21799
Ge    7.22726   7.02510  11.04629  -0.99965  -2.75724   1.56891
Sb    7.22887  11.76329  11.19737   0.02024   0.83015   0.09022
Te   11.10429   5.41390   1.75118  -0.59417   1.18260   1.23210
Te    2.16436   3.33132  10.50863  -0.36852  -0.40349  -1.00336
Ge    6.10351   6.90539   5.55236  -0.09148  -0.87507   0.28000
Ge    9.86374   5.20965   9.31440  -1.52858  -0.10111  -0.63464
Ge    5.53757   3.31300  12.51861  -0.12862   0.05277   1.22420
Ge    9.48607   7.12026   9.48607  -1.08033  -1.03395   0.17504
Ge    6.58505   4.44335  10.59118   0.60712  -0.38194  -0.00757
Ge   12.95715   3.94365   0.63513   1.12365  -0.95374  -0.42907
Ge    4.23703   1.09131   2.30430  -0.55272   0.10609  -0.19095
Sb    5.78350   0.58572   6.43833  -1.33613   0.44072  -1.90763
Te    3.21216   7.36538   2.48774   2.40713  -1.22578   0.11829
Te    5.49312  11.02354   2.96452  -1.34609   0.77441  -0.15826
Ge    0.42397   0.99533  12.19577   0.27147   1.43965   0.72656
Ge    7.10279   0.66710   0.49538  -1.22281   1.03880   0.17936
Ge   10.23003   4.03351  12.76461  -2.13796  -0.39836   0.52005
Ge    9.65459   9.26076   0.72990   0.99004  -0.69178  -0.20503
Ge   10.07657   1.46760   8.62166  -2.97027  -0.96128   0.78227
Ge   11.61239   7.26326  10.39993   0.98696   1.78655   0.69600
Ge    2.52328   4.42354   7.16849   0.26898  -0.94961   0.22621
Sb   11.38123   9.13094   3.56068  -0.63648   0.41684  -0.81350
Te    0.06853   4.62748   4.77763   0.12317  -0.64158   0.21071
Te    8.08101   0.15321   3.23285   2.09499  -3.14225  -0.73553
Ge    5.18391   8.37590   7.98217  -0.38109   3.07965  -0.16462
Ge    5.29270   5.09144   4.13041  -0.23244  -0.45008  -1.06355
Ge   12.73696  11.71060   1.30513   0.38064  -0.47391  -0.01929
Ge    1.62513   0.56396   1.52898   1.09590   0.38019   0.28763
Ge    7.79272   5.09648   2.57259  -0.15832  -0.20695  -0.16578
Ge   11.03153   3.55936   5.34073  -0.67719   0.50625  -0.22038
Ge    7.63054  10.09719   0.40018  -1.22694   0.56034  -1.20799
Sb    6.27865   6.01402   8.42600   0.00047  -2.51278  -1.59207
Te    1.94744   7.15641   5.97958   0.76008  -0.18718  -0.03855
Te    8.17773   6.75111   3.87038   0.42165   0.10964   0.31864
Ge   11.71368   3.95314  10.96575   1.53658  -1.02009  -0.67940
Ge    1.25205   2.06483   5.02594  -0.41913  -0.91133  -0.76189
Ge    9.63520   3.21486   2.76459   0.59938  -0.23883   0.10118
Ge    3.14367   1.33054   5.50058  -0.71909   0.18152   0.48516
Ge    6.46121   0.96137  10.19246  -0.36271   0.41029   0.11666
Ge    7.02706  10.21141   5.72376  -0.03923   0.98417   0.42929
Ge    9.77006  11.88028   0.27485   1.28905  -0.10522  -0.16764
Sb   11.32312  12.03405   8.14610   1.06735  -0.30796  -0.11259
Te    2.83690  10.75189   0.46251   0.93158   0.10192   0.89802
Te   11.69261   2.62170   7.19446   3.05673   1.38703  -0.69549
    80
config_type=liqu Lattice="   13.07380   0.00000   0.00000   0.00000  13.07380   0.00000   0.00000   0.00000  13.07380"    Properties=species:S:1:pos:R:3:forces:R:3 energy=-10703.3880 pbc="T T T"
Ge   10.82297   0.53701  11.19696  -0.56104   0.09674   0.18000
Ge    1.71878   9.88513  11.49151  -1.62461  -0.08598  -0.26302
Ge    0.48229  12.04762  11.42597   0.33316  -0.39272  -0.15536
Ge    8.00465   9.72254  10.61759   0.58106   1.21614   0.58594
Ge    5.61752   3.32651   6.90764  -0.06769   0.22564  -0.13851
Ge   10.65515   2.24839   0.96883   0.64897   0.95625   0.05581
Ge   10.43844   7.21131  12.37029  -0.69202  -0.42424   0.03089
Sb    4.29217   8.88151  11.75238   1.26317  -0.28008   0.26732
Te    2.88647   4.31854   2.20761   0.88491  -1.35007   0.22139
Te   11.70191   9.85040  12.04053  -0.00474   0.58558  -0.18278
Ge    2.78740  12.00975  11.31310  -0.42822   1.02785  -1.08150
Ge   11.31676   7.09150   5.23051  -1.32743   0.48324   0.81371
Ge    4.76912   8.77390   5.91801  -0.83973   1.25421   0.53143
Ge   10.16253  10.74529   8.75667  -0.59810  -0.60179   0.91743
Ge    8.10918  12.23551   7.85264   1.23013  -0.91050   0.45441
Ge    8.00921   2.74605   4.19844  -1.99787   1.46636   0.50440
Ge    2.00403  10.10572   2.40274  -1.83205   0.14478  -0.70688
Sb   12.20416   9.63331   9.14740   0.53759  -0.73155   0.85188
Te   11.73083  12.26903   5.12283  -0.15275   0.94867   0.19345
Te    3.73176  12.20761   8.37027  -0.41557  -0.29524   0.07414
Ge    8.59851   9.99308   3.88460   0.81921  -0.73205   0.87202
Ge    6.09774   8.25465   1.80788  -0.59912  -0.31890  -0.25587
Ge    2.22411   0.70125   9.20680   0.27065  -0.00145  -0.08553
Ge    3.61109   7.29040   8.48689  -0.29080   0.42512   0.79210
Ge    5.34351   0.41194  12.78549   0.32013   0.14102  -0.11776
Ge    0.61616   9.75390   6.03189   0.19987   0.12197  -0.07463
Ge    4.48912   6.14426  11.95188   0.37715   0.39652  -0.12043
Sb    2.24741  11.17130   5.36943   0.28640   1.21658   1.25978
Te    1.24299   6.47547  12.76974  -0.04195  -0.10632   0.02208
Te    8.47656   8.69956   7.49768   0.25685  -0.02329  -1.22558
Ge    8.47996   3.48841   6.89809   0.03719   0.63645   0.28944
Ge    0.46013   5.87853  10.84987   2.11483  -0.01778  -0.41319
Ge    8.71467   1.98039  11.53279  -0.50656   0.01104  -0.13688
Ge   12.19636   6.54443   7.83197  -0.05204   0.58218  -1.36955
Ge    0.64455   6.85239   3.28129  -0.47277   0.03469  -0.51252
Ge    7.09713   2.92381   1.40441  -0.26486  -0.16053  -0.22889
Ge    7.33188   7.00909  10.97406  -1.41376  -1.53954   1.74759
Sb    7.11427  11.80803  11.22760   0.44804   0.41465   0.37843
Te   10.96517   5.39290   1.78158  -0.45533   1.26668   0.96040
Te    2.10012   3.41514  10.51503   0.15583  -0.67140  -0.74824
Ge    6.12121   6.93271   5.46641  -0.10301  -1.41748   0.17597
Ge    9.87305   5.28737   9.24871  -0.89330  -1.41997  -0.60589
Ge    5.39180   3.50240  12.78807   0.16509  -0.16061   0.46282
Ge    9.45008   6.99387   9.41831  -0.83968   0.69092  -0.34990
Ge    6.61669   4.53834  10.65138   0.27271  -1.20505   0.68611
Ge   12.94160   4.14672   0.52194   0.77769  -1.02327  -0.42653
Ge    4.22638   1.02760   2.45065  -0.42100   0.15194  -0.23140
Sb    5.79286   0.51870   6.34685  -0.91738   0.48363  -1.24975
Te    3.23280   7.39408   2.53672   2.09310  -0.71243   0.00908